
.Version 9.10.4 of ABINIT 
.(MPI version, prepared for a x86_64_linux_gnu13.2 computer) 

.Copyright (C) 1998-2022 ABINIT group . 
 ABINIT comes with ABSOLUTELY NO WARRANTY.
 It is free software, and you are welcome to redistribute it
 under certain conditions (GNU General Public License,
 see ~abinit/COPYING or http://www.gnu.org/copyleft/gpl.txt).

 ABINIT is a project of the Universite Catholique de Louvain,
 Corning Inc. and other collaborators, see ~abinit/doc/developers/contributors.txt .
 Please read https://docs.abinit.org/theory/acknowledgments for suggested
 acknowledgments of the ABINIT effort.
 For more information, see https://www.abinit.org .

.Starting date : Mon 27 Jan 2025.
- ( at 02h42 )
  
- input  file    -> bandcalc.in
- output file    -> bandcalc.abo
- root for input  files -> bandcalci
- root for output files -> bandcalco


 DATASET    1 : space group Fm -3 m (#225); Bravais cF (face-center cubic)
================================================================================
 Values of the parameters that define the memory need for DATASET  1.
     intxc =       0    ionmov =       0      iscf =       7    lmnmax =       3
     lnmax =       3     mgfft =      36  mpssoang =       3    mqgrid =    3001
     natom =       1  nloc_mem =       1    nspden =       1   nspinor =       1
    nsppol =       1      nsym =      48    n1xccc =       0    ntypat =       1
    occopt =       1   xclevel =       2
-    mband =           6        mffmem =           1         mkmem =          28
       mpw =        1714          nfft =       46656          nkpt =          28
================================================================================
P This job should need less than                      19.690 Mbytes of memory.
  Rough estimation (10% accuracy) of disk space for files :
_ WF disk file :      4.396 Mbytes ; DEN or POT disk file :      0.358 Mbytes.
================================================================================


 DATASET    2 : space group Fm -3 m (#225); Bravais cF (face-center cubic)
================================================================================
 Values of the parameters that define the memory need for DATASET  2.
     intxc =       0    ionmov =       0      iscf =      -2    lmnmax =       3
     lnmax =       3     mgfft =      36  mpssoang =       3    mqgrid =    3001
     natom =       1  nloc_mem =       1    nspden =       1   nspinor =       1
    nsppol =       1      nsym =      48    n1xccc =       0    ntypat =       1
    occopt =       1   xclevel =       2
-    mband =          20        mffmem =           1         mkmem =         401
       mpw =        1721          nfft =       46656          nkpt =         401
================================================================================
P This job should need less than                     228.533 Mbytes of memory.
  Rough estimation (10% accuracy) of disk space for files :
_ WF disk file :    210.610 Mbytes ; DEN or POT disk file :      0.358 Mbytes.
================================================================================


 DATASET    3 : space group Fm -3 m (#225); Bravais cF (face-center cubic)
================================================================================
 Values of the parameters that define the memory need for DATASET  3.
     intxc =       0    ionmov =       0      iscf =      -2    lmnmax =       3
     lnmax =       3     mgfft =      36  mpssoang =       3    mqgrid =    3001
     natom =       1  nloc_mem =       1    nspden =       1   nspinor =       1
    nsppol =       1      nsym =      48    n1xccc =       0    ntypat =       1
    occopt =       1   xclevel =       2
-    mband =          20        mffmem =           1         mkmem =          21
       mpw =        1708          nfft =       46656          nkpt =          21
================================================================================
P This job should need less than                      20.396 Mbytes of memory.
  Rough estimation (10% accuracy) of disk space for files :
_ WF disk file :     10.948 Mbytes ; DEN or POT disk file :      0.358 Mbytes.
================================================================================

--------------------------------------------------------------------------------
------------- Echo of variables that govern the present computation ------------
--------------------------------------------------------------------------------
-
- outvars: echo of selected default values                                      
-   iomode0 =  0 , fftalg0 =112 , wfoptalg0 =  0
-
- outvars: echo of global parameters not present in the input file              
-  max_nthreads =    0
-
 -outvars: echo values of preprocessed input variables --------
            acell      1.0438847158E+01  1.0438847158E+01  1.0438847158E+01 Bohr
              amu      4.00780000E+01
             ecut      2.50000000E+01 Hartree
           enunit1          0
           enunit2          1
           enunit3          1
-          fftalg         112
           getden1          0
           getden2         -1
           getden3         -1
             iscf1          7
             iscf2         -2
             iscf3         -2
           istwfk2       2    0    0    0    0    0    0    0    0    0
                         0    0    0    0    0    0    0    0    0    0
                         0    0    0    0    0    0    0    0    0    0
                         0    0    0    0    0    0    0    0    0    0
                         0    0    0    0    0    0    0    0    0    0
           istwfk3       0    0    0    0    0    0    0    0    0    0
                         0    0    0    0    0    0    0    0    0    0
                         5
                       outvar_i_n : Printing only first  50 k-points.
              ixc          11
           jdtset        1    2    3
              kpt1    -8.33333333E-02 -1.66666667E-01  0.00000000E+00
                      -8.33333333E-02 -3.33333333E-01  0.00000000E+00
                      -1.66666667E-01 -2.50000000E-01  0.00000000E+00
                      -8.33333333E-02 -2.50000000E-01  8.33333333E-02
                      -8.33333333E-02  5.00000000E-01  0.00000000E+00
                      -1.66666667E-01 -4.16666667E-01  0.00000000E+00
                      -8.33333333E-02 -4.16666667E-01  8.33333333E-02
                      -2.50000000E-01 -3.33333333E-01  0.00000000E+00
                      -1.66666667E-01 -3.33333333E-01  8.33333333E-02
                      -8.33333333E-02 -3.33333333E-01  1.66666667E-01
                      -8.33333333E-02  3.33333333E-01  0.00000000E+00
                      -1.66666667E-01  4.16666667E-01  0.00000000E+00
                      -2.50000000E-01  5.00000000E-01  0.00000000E+00
                      -1.66666667E-01  5.00000000E-01  8.33333333E-02
                      -3.33333333E-01 -4.16666667E-01  0.00000000E+00
                      -2.50000000E-01 -4.16666667E-01  8.33333333E-02
                      -1.66666667E-01 -4.16666667E-01  1.66666667E-01
                      -8.33333333E-02 -4.16666667E-01  2.50000000E-01
                      -8.33333333E-02  1.66666667E-01  0.00000000E+00
                      -1.66666667E-01  2.50000000E-01  0.00000000E+00
                      -2.50000000E-01  3.33333333E-01  0.00000000E+00
                      -3.33333333E-01  4.16666667E-01  0.00000000E+00
                      -4.16666667E-01  5.00000000E-01  0.00000000E+00
                      -3.33333333E-01  5.00000000E-01  8.33333333E-02
                      -2.50000000E-01  5.00000000E-01  1.66666667E-01
                      -8.33333333E-02  0.00000000E+00  0.00000000E+00
                      -2.50000000E-01  0.00000000E+00  0.00000000E+00
                      -4.16666667E-01  0.00000000E+00  0.00000000E+00
              kpt2     0.00000000E+00  0.00000000E+00  0.00000000E+00
                       7.35294118E-03  0.00000000E+00  7.35294118E-03
                       1.47058824E-02  0.00000000E+00  1.47058824E-02
                       2.20588235E-02  0.00000000E+00  2.20588235E-02
                       2.94117647E-02  0.00000000E+00  2.94117647E-02
                       3.67647059E-02  0.00000000E+00  3.67647059E-02
                       4.41176471E-02  0.00000000E+00  4.41176471E-02
                       5.14705882E-02  0.00000000E+00  5.14705882E-02
                       5.88235294E-02  0.00000000E+00  5.88235294E-02
                       6.61764706E-02  0.00000000E+00  6.61764706E-02
                       7.35294118E-02  0.00000000E+00  7.35294118E-02
                       8.08823529E-02  0.00000000E+00  8.08823529E-02
                       8.82352941E-02  0.00000000E+00  8.82352941E-02
                       9.55882353E-02  0.00000000E+00  9.55882353E-02
                       1.02941176E-01  0.00000000E+00  1.02941176E-01
                       1.10294118E-01  0.00000000E+00  1.10294118E-01
                       1.17647059E-01  0.00000000E+00  1.17647059E-01
                       1.25000000E-01  0.00000000E+00  1.25000000E-01
                       1.32352941E-01  0.00000000E+00  1.32352941E-01
                       1.39705882E-01  0.00000000E+00  1.39705882E-01
                       1.47058824E-01  0.00000000E+00  1.47058824E-01
                       1.54411765E-01  0.00000000E+00  1.54411765E-01
                       1.61764706E-01  0.00000000E+00  1.61764706E-01
                       1.69117647E-01  0.00000000E+00  1.69117647E-01
                       1.76470588E-01  0.00000000E+00  1.76470588E-01
                       1.83823529E-01  0.00000000E+00  1.83823529E-01
                       1.91176471E-01  0.00000000E+00  1.91176471E-01
                       1.98529412E-01  0.00000000E+00  1.98529412E-01
                       2.05882353E-01  0.00000000E+00  2.05882353E-01
                       2.13235294E-01  0.00000000E+00  2.13235294E-01
                       2.20588235E-01  0.00000000E+00  2.20588235E-01
                       2.27941176E-01  0.00000000E+00  2.27941176E-01
                       2.35294118E-01  0.00000000E+00  2.35294118E-01
                       2.42647059E-01  0.00000000E+00  2.42647059E-01
                       2.50000000E-01  0.00000000E+00  2.50000000E-01
                       2.57352941E-01  0.00000000E+00  2.57352941E-01
                       2.64705882E-01  0.00000000E+00  2.64705882E-01
                       2.72058824E-01  0.00000000E+00  2.72058824E-01
                       2.79411765E-01  0.00000000E+00  2.79411765E-01
                       2.86764706E-01  0.00000000E+00  2.86764706E-01
                       2.94117647E-01  0.00000000E+00  2.94117647E-01
                       3.01470588E-01  0.00000000E+00  3.01470588E-01
                       3.08823529E-01  0.00000000E+00  3.08823529E-01
                       3.16176471E-01  0.00000000E+00  3.16176471E-01
                       3.23529412E-01  0.00000000E+00  3.23529412E-01
                       3.30882353E-01  0.00000000E+00  3.30882353E-01
                       3.38235294E-01  0.00000000E+00  3.38235294E-01
                       3.45588235E-01  0.00000000E+00  3.45588235E-01
                       3.52941176E-01  0.00000000E+00  3.52941176E-01
                       3.60294118E-01  0.00000000E+00  3.60294118E-01
              kpt3     6.75000000E-01  2.50000000E-01  6.74000000E-01
                       6.66250000E-01  2.37500000E-01  6.65300000E-01
                       6.57500000E-01  2.25000000E-01  6.56600000E-01
                       6.48750000E-01  2.12500000E-01  6.47900000E-01
                       6.40000000E-01  2.00000000E-01  6.39200000E-01
                       6.31250000E-01  1.87500000E-01  6.30500000E-01
                       6.22500000E-01  1.75000000E-01  6.21800000E-01
                       6.13750000E-01  1.62500000E-01  6.13100000E-01
                       6.05000000E-01  1.50000000E-01  6.04400000E-01
                       5.96250000E-01  1.37500000E-01  5.95700000E-01
                       5.87500000E-01  1.25000000E-01  5.87000000E-01
                       5.78750000E-01  1.12500000E-01  5.78300000E-01
                       5.70000000E-01  1.00000000E-01  5.69600000E-01
                       5.61250000E-01  8.75000000E-02  5.60900000E-01
                       5.52500000E-01  7.50000000E-02  5.52200000E-01
                       5.43750000E-01  6.25000000E-02  5.43500000E-01
                       5.35000000E-01  5.00000000E-02  5.34800000E-01
                       5.26250000E-01  3.75000000E-02  5.26100000E-01
                       5.17500000E-01  2.50000000E-02  5.17400000E-01
                       5.08750000E-01  1.25000000E-02  5.08700000E-01
                       5.00000000E-01  0.00000000E+00  5.00000000E-01
                       outvar_i_n : Printing only first  50 k-points.
           kptopt1          1
           kptopt2         -9
           kptopt3         -1
         kptrlatt        6   -6    6     -6    6    6     -6   -6    6
          kptrlen1     6.26330829E+01
          kptrlen2     3.00000000E+01
          kptrlen3     3.00000000E+01
P           mkmem1         28
P           mkmem2        401
P           mkmem3         21
            natom           1
            nband1          6
            nband2         20
            nband3         20
           nbdbuf1          0
           nbdbuf2          2
           nbdbuf3          2
           ndtset           3
            ngfft          36      36      36
             nkpt1         28
             nkpt2        401
             nkpt3         21
            nstep         200
             nsym          48
           ntypat           1
              occ      2.000000  2.000000  2.000000  2.000000  2.000000  0.000000
            rprim      0.0000000000E+00  5.0000000000E-01  5.0000000000E-01
                       5.0000000000E-01  0.0000000000E+00  5.0000000000E-01
                       5.0000000000E-01  5.0000000000E-01  0.0000000000E+00
           shiftk      5.00000000E-01  5.00000000E-01  5.00000000E-01
          spgroup         225
           symrel      1  0  0   0  1  0   0  0  1      -1  0  0   0 -1  0   0  0 -1
                       0 -1  1   0 -1  0   1 -1  0       0  1 -1   0  1  0  -1  1  0
                      -1  0  0  -1  0  1  -1  1  0       1  0  0   1  0 -1   1 -1  0
                       0  1 -1   1  0 -1   0  0 -1       0 -1  1  -1  0  1   0  0  1
                      -1  0  0  -1  1  0  -1  0  1       1  0  0   1 -1  0   1  0 -1
                       0 -1  1   1 -1  0   0 -1  0       0  1 -1  -1  1  0   0  1  0
                       1  0  0   0  0  1   0  1  0      -1  0  0   0  0 -1   0 -1  0
                       0  1 -1   0  0 -1   1  0 -1       0 -1  1   0  0  1  -1  0  1
                      -1  0  1  -1  1  0  -1  0  0       1  0 -1   1 -1  0   1  0  0
                       0 -1  0   1 -1  0   0 -1  1       0  1  0  -1  1  0   0  1 -1
                       1  0 -1   0  0 -1   0  1 -1      -1  0  1   0  0  1   0 -1  1
                       0  1  0   0  0  1   1  0  0       0 -1  0   0  0 -1  -1  0  0
                       1  0 -1   0  1 -1   0  0 -1      -1  0  1   0 -1  1   0  0  1
                       0 -1  0   0 -1  1   1 -1  0       0  1  0   0  1 -1  -1  1  0
                      -1  0  1  -1  0  0  -1  1  0       1  0 -1   1  0  0   1 -1  0
                       0  1  0   1  0  0   0  0  1       0 -1  0  -1  0  0   0  0 -1
                       0  0 -1   0  1 -1   1  0 -1       0  0  1   0 -1  1  -1  0  1
                       1 -1  0   0 -1  1   0 -1  0      -1  1  0   0  1 -1   0  1  0
                       0  0  1   1  0  0   0  1  0       0  0 -1  -1  0  0   0 -1  0
                      -1  1  0  -1  0  0  -1  0  1       1 -1  0   1  0  0   1  0 -1
                       0  0  1   0  1  0   1  0  0       0  0 -1   0 -1  0  -1  0  0
                       1 -1  0   0 -1  0   0 -1  1      -1  1  0   0  1  0   0  1 -1
                       0  0 -1   1  0 -1   0  1 -1       0  0  1  -1  0  1   0 -1  1
                      -1  1  0  -1  0  1  -1  0  0       1 -1  0   1  0 -1   1  0  0
           toldfe1     1.00000000E-06 Hartree
           toldfe2     0.00000000E+00 Hartree
           toldfe3     0.00000000E+00 Hartree
           tolwfr1     0.00000000E+00
           tolwfr2     1.00000000E-10
           tolwfr3     1.00000000E-10
            typat      1
              wtk1       0.02778    0.02778    0.02778    0.05556    0.02778    0.02778
                         0.05556    0.02778    0.05556    0.05556    0.02778    0.02778
                         0.02778    0.05556    0.02778    0.05556    0.05556    0.05556
                         0.02778    0.02778    0.02778    0.02778    0.02778    0.05556
                         0.05556    0.00926    0.00926    0.00926
              wtk2       1.00000    1.00000    1.00000    1.00000    1.00000    1.00000
                         1.00000    1.00000    1.00000    1.00000    1.00000    1.00000
                         1.00000    1.00000    1.00000    1.00000    1.00000    1.00000
                         1.00000    1.00000    1.00000    1.00000    1.00000    1.00000
                         1.00000    1.00000    1.00000    1.00000    1.00000    1.00000
                         1.00000    1.00000    1.00000    1.00000    1.00000    1.00000
                         1.00000    1.00000    1.00000    1.00000    1.00000    1.00000
                         1.00000    1.00000    1.00000    1.00000    1.00000    1.00000
                         1.00000    1.00000
              wtk3       1.00000    1.00000    1.00000    1.00000    1.00000    1.00000
                         1.00000    1.00000    1.00000    1.00000    1.00000    1.00000
                         1.00000    1.00000    1.00000    1.00000    1.00000    1.00000
                         1.00000    1.00000    1.00000
                       outvars : Printing only first  50 k-points.
            znucl       20.00000

================================================================================

 chkinp: Checking input parameters for consistency, jdtset=   1.

 chkinp: Checking input parameters for consistency, jdtset=   2.

 chkinp: Checking input parameters for consistency, jdtset=   3.

================================================================================
== DATASET  1 ==================================================================
-   mpi_nproc: 1, omp_nthreads: -1 (-1 if OMP is not activated)


--- !DatasetInfo
iteration_state: {dtset: 1, }
dimensions: {natom: 1, nkpt: 28, mband: 6, nsppol: 1, nspinor: 1, nspden: 1, mpw: 1714, }
cutoff_energies: {ecut:  25.0, pawecutdg:  -1.0, }
electrons: {nelect:   1.00000000E+01, charge:   0.00000000E+00, occopt:   1.00000000E+00, tsmear:   1.00000000E-02, }
meta: {optdriver: 0, ionmov: 0, optcell: 0, iscf: 7, paral_kgb: 0, }
...

 Exchange-correlation functional for the present dataset will be:
  GGA: Perdew-Burke-Ernzerhof functional - ixc=11
 Citation for XC functional:
  J.P.Perdew, K.Burke, M.Ernzerhof, PRL 77, 3865 (1996)

 Real(R)+Recip(G) space primitive vectors, cartesian coordinates (Bohr,Bohr^-1):
 R(1)=  0.0000000  5.2194236  5.2194236  G(1)= -0.0957960  0.0957960  0.0957960
 R(2)=  5.2194236  0.0000000  5.2194236  G(2)=  0.0957960 -0.0957960  0.0957960
 R(3)=  5.2194236  5.2194236  0.0000000  G(3)=  0.0957960  0.0957960 -0.0957960
 Unit cell volume ucvol=  2.8437907E+02 bohr^3
 Angles (23,13,12)=  6.00000000E+01  6.00000000E+01  6.00000000E+01 degrees

 getcut: wavevector=  0.0000  0.0000  0.0000  ngfft=  36  36  36
         ecut(hartree)=     25.000   => boxcut(ratio)=   2.16685

--- Pseudopotential description ------------------------------------------------
- pspini: atom type   1  psp file is /mnt/e/WSL/compmatphy/workdir/abinit-psp/Ca.fhi
- pspatm: opening atomic psp file    /mnt/e/WSL/compmatphy/workdir/abinit-psp/Ca.fhi
- OPIUM generated Ca potential
- 20.00000  10.00000    250109                znucl, zion, pspdat
    6   11    2    2      1153   0.00000      pspcod,pspxc,lmax,lloc,mmax,r2well
    0.00000000000000    0.00000000000000    0.00000000000000   rchrg,fchrg,qchrg
  1.013085          amesh (Hamman grid)
  pspatm : epsatm=    6.37925424
         --- l  ekb(1:nproj) -->
             0    5.066979
             1    2.346077
 pspatm: atomic psp has been read  and splines computed

   6.37925424E+01                                ecore*ucvol(ha*bohr**3)
--------------------------------------------------------------------------------

_setup2: Arith. and geom. avg. npw (full set) are    1697.241    1697.231

================================================================================

--- !BeginCycle
iteration_state: {dtset: 1, }
solver: {iscf: 7, nstep: 200, nline: 4, wfoptalg: 0, }
tolerances: {toldfe: 1.00E-06, }
...

     iter   Etot(hartree)      deltaE(h)  residm     vres2
 ETOT  1  -36.510263875388    -3.651E+01 5.118E-02 8.416E+02
 ETOT  2  -36.725529291662    -2.153E-01 1.467E-02 6.913E+01
 ETOT  3  -36.747584615937    -2.206E-02 1.337E-03 1.060E+00
 ETOT  4  -36.747673037903    -8.842E-05 5.206E-04 7.996E-02
 ETOT  5  -36.747684974756    -1.194E-05 2.316E-04 1.529E-03
 ETOT  6  -36.747685556911    -5.822E-07 1.216E-04 3.551E-05
 ETOT  7  -36.747685636559    -7.965E-08 5.465E-05 1.299E-06

 At SCF step    7, etot is converged : 
  for the second time, diff in etot=  7.965E-08 < toldfe=  1.000E-06

 Cartesian components of stress tensor (hartree/bohr^3)
  sigma(1 1)=  4.12497869E-07  sigma(3 2)=  0.00000000E+00
  sigma(2 2)=  4.12497869E-07  sigma(3 1)=  0.00000000E+00
  sigma(3 3)=  4.12497869E-07  sigma(2 1)=  0.00000000E+00


--- !ResultsGS
iteration_state: {dtset: 1, }
comment   : Summary of ground state results
lattice_vectors:
- [  0.0000000,   5.2194236,   5.2194236, ]
- [  5.2194236,   0.0000000,   5.2194236, ]
- [  5.2194236,   5.2194236,   0.0000000, ]
lattice_lengths: [   7.38138,    7.38138,    7.38138, ]
lattice_angles: [ 60.000,  60.000,  60.000, ] # degrees, (23, 13, 12)
lattice_volume:   2.8437907E+02
convergence: {deltae: -7.965E-08, res2:  1.299E-06, residm:  5.465E-05, diffor: null, }
etotal    :  -3.67476856E+01
entropy   :   0.00000000E+00
fermie    :   1.65183696E-01
cartesian_stress_tensor: # hartree/bohr^3
- [  4.12497869E-07,   0.00000000E+00,   0.00000000E+00, ]
- [  0.00000000E+00,   4.12497869E-07,   0.00000000E+00, ]
- [  0.00000000E+00,   0.00000000E+00,   4.12497869E-07, ]
pressure_GPa:  -1.2136E-02
xred      :
- [  0.0000E+00,   0.0000E+00,   0.0000E+00, Ca]
cartesian_forces: # hartree/bohr
- [ -0.00000000E+00,  -0.00000000E+00,  -0.00000000E+00, ]
force_length_stats: {min:   0.00000000E+00, max:   0.00000000E+00, mean:   0.00000000E+00, }
...

 Integrated electronic density in atomic spheres:
 ------------------------------------------------
 Atom  Sphere_radius  Integrated_density
    1        2.00000          7.55637789
================================================================================

 ----iterations are completed or convergence reached----

 Mean square residual over all n,k,spin=   10.295E-07; max=  54.653E-06
 reduced coordinates (array xred) for    1 atoms
       0.000000000000      0.000000000000      0.000000000000
 rms dE/dt=  0.0000E+00; max dE/dt=  0.0000E+00; dE/dt below (all hartree)
    1       0.000000000000      0.000000000000      0.000000000000

 cartesian coordinates (angstrom) at end:
    1      0.00000000000000     0.00000000000000     0.00000000000000

 cartesian forces (hartree/bohr) at end:
    1     -0.00000000000000    -0.00000000000000    -0.00000000000000
 frms,max,avg= 0.0000000E+00 0.0000000E+00   0.000E+00  0.000E+00  0.000E+00 h/b

 cartesian forces (eV/Angstrom) at end:
    1     -0.00000000000000    -0.00000000000000    -0.00000000000000
 frms,max,avg= 0.0000000E+00 0.0000000E+00   0.000E+00  0.000E+00  0.000E+00 e/A
 length scales= 10.438847158060 10.438847158060 10.438847158060 bohr
              =  5.524000000000  5.524000000000  5.524000000000 angstroms
 prteigrs : about to open file bandcalco_DS1_EIG
 Fermi (or HOMO) energy (hartree) =   0.16518   Average Vxc (hartree)=  -0.28373
 Eigenvalues (hartree) for nkpt=  28  k points:
 kpt#   1, nband=  6, wtk=  0.02778, kpt= -0.0833 -0.1667  0.0000 (reduced coord)
  -1.36207   -0.67883   -0.67806   -0.67800    0.03356    0.23223
 prteigrs : prtvol=0 or 1, do not print more k-points.


--- !EnergyTerms
iteration_state     : {dtset: 1, }
comment             : Components of total free energy in Hartree
kinetic             :  1.31332910404726E+01
hartree             :  9.95113884816675E+00
xc                  : -5.07524811519833E+00
Ewald energy        : -2.19605767030205E+01
psp_core            :  2.24322215506438E-01
local_psp           : -4.15957583671377E+01
non_local_psp       :  8.57514544465169E+00
total_energy        : -3.67476856365591E+01
total_energy_eV     : -9.99955379823017E+02
band_energy         : -6.57081650302536E+00
...


 Cartesian components of stress tensor (hartree/bohr^3)
  sigma(1 1)=  4.12497869E-07  sigma(3 2)=  0.00000000E+00
  sigma(2 2)=  4.12497869E-07  sigma(3 1)=  0.00000000E+00
  sigma(3 3)=  4.12497869E-07  sigma(2 1)=  0.00000000E+00

-Cartesian components of stress tensor (GPa)         [Pressure= -1.2136E-02 GPa]
- sigma(1 1)=  1.21361042E-02  sigma(3 2)=  0.00000000E+00
- sigma(2 2)=  1.21361042E-02  sigma(3 1)=  0.00000000E+00
- sigma(3 3)=  1.21361042E-02  sigma(2 1)=  0.00000000E+00

================================================================================
== DATASET  2 ==================================================================
-   mpi_nproc: 1, omp_nthreads: -1 (-1 if OMP is not activated)


--- !DatasetInfo
iteration_state: {dtset: 2, }
dimensions: {natom: 1, nkpt: 401, mband: 20, nsppol: 1, nspinor: 1, nspden: 1, mpw: 1721, }
cutoff_energies: {ecut:  25.0, pawecutdg:  -1.0, }
electrons: {nelect:   1.00000000E+01, charge:   0.00000000E+00, occopt:   1.00000000E+00, tsmear:   1.00000000E-02, }
meta: {optdriver: 0, ionmov: 0, optcell: 0, iscf: -2, paral_kgb: 0, }
...

 mkfilename : getden/=0, take file _DEN from output of DATASET   1.

 Exchange-correlation functional for the present dataset will be:
  GGA: Perdew-Burke-Ernzerhof functional - ixc=11
 Citation for XC functional:
  J.P.Perdew, K.Burke, M.Ernzerhof, PRL 77, 3865 (1996)

 Real(R)+Recip(G) space primitive vectors, cartesian coordinates (Bohr,Bohr^-1):
 R(1)=  0.0000000  5.2194236  5.2194236  G(1)= -0.0957960  0.0957960  0.0957960
 R(2)=  5.2194236  0.0000000  5.2194236  G(2)=  0.0957960 -0.0957960  0.0957960
 R(3)=  5.2194236  5.2194236  0.0000000  G(3)=  0.0957960  0.0957960 -0.0957960
 Unit cell volume ucvol=  2.8437907E+02 bohr^3
 Angles (23,13,12)=  6.00000000E+01  6.00000000E+01  6.00000000E+01 degrees

 getcut: wavevector=  0.0000  0.0000  0.0000  ngfft=  36  36  36
         ecut(hartree)=     25.000   => boxcut(ratio)=   2.16685
--------------------------------------------------------------------------------


================================================================================
 prteigrs : about to open file bandcalco_DS2_EIG
 Non-SCF case, kpt    1 (  0.00000  0.00000  0.00000), residuals and eigenvalues=
  3.92E-11  2.59E-11  6.15E-11  4.82E-11  1.53E-11  1.90E-11  1.63E-11  6.52E-11
  2.57E-11  7.38E-11  1.20E-11  2.02E-11  2.19E-11  6.50E-11  1.11E-11  2.50E-11
  3.83E-11  3.45E-11  1.58E-11  1.56E-11
 -1.3622E+00 -6.7779E-01 -6.7779E-01 -6.7779E-01  1.7798E-02  2.4693E-01
  2.4693E-01  2.4693E-01  2.8543E-01  2.8543E-01  4.9734E-01  5.7433E-01
  5.7433E-01  5.7433E-01  6.4941E-01  6.9927E-01  6.9927E-01  6.9927E-01
  7.8456E-01  7.8456E-01
 Non-SCF case, kpt    2 (  0.00735  0.00000  0.00735), residuals and eigenvalues=
  7.52E-11  3.00E-11  4.15E-11  5.50E-11  8.91E-11  4.48E-11  2.40E-11  6.97E-11
  5.35E-11  8.06E-11  1.51E-11  2.68E-11  1.89E-11  3.75E-11  1.08E-11  4.04E-11
  4.85E-11  3.58E-11  2.68E-06  7.56E-11
 -1.3622E+00 -6.7780E-01 -6.7780E-01 -6.7780E-01  1.7843E-02  2.4689E-01
  2.4695E-01  2.4695E-01  2.8539E-01  2.8545E-01  4.9740E-01  5.7405E-01
  5.7426E-01  5.7426E-01  6.4982E-01  6.9917E-01  6.9917E-01  6.9933E-01
  7.8403E-01  7.8481E-01
 Non-SCF case, kpt    3 (  0.01471  0.00000  0.01471), residuals and eigenvalues=
  7.49E-11  3.61E-11  4.53E-11  6.30E-11  7.90E-11  4.95E-11  2.71E-11  7.30E-11
  6.44E-11  9.31E-11  1.39E-11  5.34E-11  3.69E-11  9.08E-11  5.24E-11  9.18E-11
  8.26E-11  4.52E-11  2.56E-05  9.33E-11
 -1.3622E+00 -6.7781E-01 -6.7780E-01 -6.7780E-01  1.7980E-02  2.4674E-01
  2.4701E-01  2.4701E-01  2.8526E-01  2.8548E-01  4.9759E-01  5.7320E-01
  5.7403E-01  5.7403E-01  6.5104E-01  6.9890E-01  6.9890E-01  6.9952E-01
  7.8208E-01  7.8556E-01
 Non-SCF case, kpt    4 (  0.02206  0.00000  0.02206), residuals and eigenvalues=
  7.37E-11  4.27E-11  4.67E-11  6.65E-11  6.99E-11  5.42E-11  3.16E-11  6.91E-11
  8.38E-11  9.30E-11  7.63E-12  7.77E-11  6.75E-11  9.54E-11  2.06E-11  2.69E-11
  5.96E-11  4.26E-11  4.49E-05  4.36E-11
 -1.3622E+00 -6.7782E-01 -6.7780E-01 -6.7780E-01  1.8207E-02  2.4650E-01
  2.4710E-01  2.4710E-01  2.8503E-01  2.8554E-01  4.9790E-01  5.7186E-01
  5.7364E-01  5.7364E-01  6.5300E-01  6.9845E-01  6.9845E-01  6.9983E-01
  7.7826E-01  7.8679E-01
 Non-SCF case, kpt    5 (  0.02941  0.00000  0.02941), residuals and eigenvalues=
  2.89E-11  8.16E-11  2.38E-11  3.11E-11  7.53E-11  3.45E-11  2.19E-11  3.39E-11
  1.33E-11  2.67E-11  1.67E-11  6.51E-11  5.15E-11  6.67E-11  6.91E-11  7.29E-11
  4.93E-11  8.74E-11  8.51E-07  7.17E-11
 -1.3622E+00 -6.7784E-01 -6.7781E-01 -6.7781E-01  1.8524E-02  2.4617E-01
  2.4722E-01  2.4722E-01  2.8471E-01  2.8562E-01  4.9833E-01  5.7010E-01
  5.7309E-01  5.7309E-01  6.5562E-01  6.9787E-01  6.9787E-01  7.0027E-01
  7.7347E-01  7.8846E-01
 Non-SCF case, kpt    6 (  0.03676  0.00000  0.03676), residuals and eigenvalues=
  6.62E-11  3.55E-11  2.51E-11  8.23E-11  5.15E-11  1.82E-11  3.53E-11  5.23E-11
  5.47E-11  3.15E-11  7.00E-11  5.58E-11  7.15E-11  8.07E-11  4.37E-11  2.66E-11
  8.79E-11  8.91E-11  8.63E-08  3.37E-11
 -1.3622E+00 -6.7786E-01 -6.7782E-01 -6.7782E-01  1.8932E-02  2.4574E-01
  2.4738E-01  2.4738E-01  2.8431E-01  2.8573E-01  4.9887E-01  5.6801E-01
  5.7239E-01  5.7239E-01  6.5880E-01  6.9718E-01  6.9718E-01  7.0083E-01
  7.6814E-01  7.9056E-01
 Non-SCF case, kpt    7 (  0.04412  0.00000  0.04412), residuals and eigenvalues=
  5.87E-11  3.79E-11  2.50E-11  7.63E-11  4.97E-11  2.06E-11  3.15E-11  4.08E-11
  5.67E-11  3.49E-11  1.39E-11  6.08E-11  2.72E-11  8.12E-11  3.61E-11  3.70E-11
  5.63E-11  9.75E-11  8.81E-09  8.21E-11
 -1.3622E+00 -6.7789E-01 -6.7783E-01 -6.7783E-01  1.9431E-02  2.4522E-01
  2.4758E-01  2.4758E-01  2.8382E-01  2.8586E-01  4.9954E-01  5.6566E-01
  5.7152E-01  5.7152E-01  6.6245E-01  6.9645E-01  6.9645E-01  7.0152E-01
  7.6225E-01  7.9304E-01
 Non-SCF case, kpt    8 (  0.05147  0.00000  0.05147), residuals and eigenvalues=
  3.26E-11  1.99E-11  2.28E-11  3.52E-11  1.56E-11  4.67E-11  2.47E-11  4.00E-11
  7.29E-11  2.73E-11  9.69E-12  5.54E-11  2.04E-11  5.44E-11  2.93E-11  5.49E-11
  7.90E-11  9.90E-11  3.47E-08  5.14E-11
 -1.3622E+00 -6.7793E-01 -6.7784E-01 -6.7784E-01  2.0019E-02  2.4461E-01
  2.4781E-01  2.4781E-01  2.8325E-01  2.8601E-01  5.0031E-01  5.6315E-01
  5.7048E-01  5.7048E-01  6.6645E-01  6.9569E-01  6.9569E-01  7.0234E-01
  7.5597E-01  7.9586E-01
 Non-SCF case, kpt    9 (  0.05882  0.00000  0.05882), residuals and eigenvalues=
  3.24E-11  2.18E-11  2.14E-11  3.26E-11  9.75E-11  5.70E-11  2.01E-11  4.17E-11
  7.66E-11  2.55E-11  1.53E-11  5.93E-11  2.80E-11  6.58E-11  2.93E-11  5.63E-12
  3.87E-11  6.05E-11  5.39E-09  6.95E-11
 -1.3622E+00 -6.7797E-01 -6.7786E-01 -6.7786E-01  2.0698E-02  2.4392E-01
  2.4808E-01  2.4808E-01  2.8258E-01  2.8619E-01  5.0119E-01  5.6052E-01
  5.6927E-01  5.6927E-01  6.7071E-01  6.9497E-01  6.9497E-01  7.0329E-01
  7.4947E-01  7.9898E-01
 Non-SCF case, kpt   10 (  0.06618  0.00000  0.06618), residuals and eigenvalues=
  3.03E-11  2.25E-11  2.87E-11  8.31E-11  1.05E-11  4.95E-11  1.61E-11  3.48E-11
  3.97E-11  2.21E-11  5.03E-11  6.46E-11  7.36E-11  7.73E-11  2.91E-11  2.58E-11
  6.66E-11  3.93E-11  1.05E-10  3.08E-10
 -1.3622E+00 -6.7801E-01 -6.7787E-01 -6.7787E-01  2.1467E-02  2.4315E-01
  2.4839E-01  2.4839E-01  2.8183E-01  2.8639E-01  5.0217E-01  5.5783E-01
  5.6788E-01  5.6788E-01  6.7510E-01  6.9431E-01  6.9431E-01  7.0437E-01
  7.4288E-01  8.0238E-01
 Non-SCF case, kpt   11 (  0.07353  0.00000  0.07353), residuals and eigenvalues=
  2.79E-11  2.36E-11  3.05E-11  8.44E-11  9.99E-12  5.24E-11  1.56E-11  2.32E-11
  3.58E-11  2.03E-11  7.39E-11  7.82E-11  6.43E-11  9.06E-11  3.78E-11  8.51E-11
  3.86E-11  7.82E-11  1.23E-10  7.02E-09
 -1.3622E+00 -6.7806E-01 -6.7789E-01 -6.7789E-01  2.2323E-02  2.4231E-01
  2.4874E-01  2.4874E-01  2.8100E-01  2.8661E-01  5.0325E-01  5.5512E-01
  5.6631E-01  5.6631E-01  6.7946E-01  6.9374E-01  6.9374E-01  7.0559E-01
  7.3641E-01  8.0602E-01
 Non-SCF case, kpt   12 (  0.08088  0.00000  0.08088), residuals and eigenvalues=
  2.69E-11  2.24E-11  3.20E-11  9.60E-11  9.55E-11  5.04E-11  2.23E-11  7.04E-11
  3.65E-11  3.10E-11  8.01E-11  9.62E-11  2.83E-11  5.23E-11  6.20E-11  2.13E-11
  6.70E-11  6.74E-11  5.88E-11  1.94E-08
 -1.3622E+00 -6.7812E-01 -6.7791E-01 -6.7791E-01  2.3268E-02  2.4138E-01
  2.4912E-01  2.4912E-01  2.8009E-01  2.8685E-01  5.0441E-01  5.5242E-01
  5.6457E-01  5.6457E-01  6.8351E-01  6.9330E-01  6.9330E-01  7.0694E-01
  7.3033E-01  8.0987E-01
 Non-SCF case, kpt   13 (  0.08824  0.00000  0.08824), residuals and eigenvalues=
  4.18E-11  6.29E-11  3.06E-11  7.92E-11  1.33E-11  2.58E-11  1.95E-11  3.44E-11
  1.84E-11  9.75E-11  2.36E-11  2.98E-11  2.92E-11  3.37E-11  3.74E-11  1.54E-11
  4.89E-11  4.66E-11  5.62E-11  7.49E-08
 -1.3622E+00 -6.7818E-01 -6.7794E-01 -6.7794E-01  2.4299E-02  2.4039E-01
  2.4954E-01  2.4954E-01  2.7909E-01  2.8711E-01  5.0566E-01  5.4977E-01
  5.6264E-01  5.6264E-01  6.8674E-01  6.9300E-01  6.9300E-01  7.0842E-01
  7.2516E-01  8.1391E-01
 Non-SCF case, kpt   14 (  0.09559  0.00000  0.09559), residuals and eigenvalues=
  4.31E-11  5.16E-11  3.50E-11  8.82E-11  1.30E-11  2.75E-11  2.06E-11  3.61E-11
  1.41E-11  8.94E-11  1.85E-11  2.84E-11  3.09E-11  3.86E-11  6.19E-11  6.88E-11
  8.85E-11  3.75E-11  7.75E-11  1.75E-07
 -1.3622E+00 -6.7824E-01 -6.7796E-01 -6.7796E-01  2.5418E-02  2.3934E-01
  2.5000E-01  2.5000E-01  2.7801E-01  2.8739E-01  5.0698E-01  5.4718E-01
  5.6054E-01  5.6054E-01  6.8829E-01  6.9288E-01  6.9288E-01  7.1004E-01
  7.2176E-01  8.1810E-01
 Non-SCF case, kpt   15 (  0.10294  0.00000  0.10294), residuals and eigenvalues=
  4.44E-11  3.28E-11  4.28E-11  9.68E-11  9.81E-12  2.80E-11  2.32E-11  3.75E-11
  8.58E-11  7.90E-11  1.43E-11  2.59E-11  4.32E-11  9.73E-11  4.38E-11  4.05E-11
  9.75E-11  2.92E-11  8.68E-11  3.89E-07
 -1.3621E+00 -6.7831E-01 -6.7798E-01 -6.7798E-01  2.6624E-02  2.3822E-01
  2.5049E-01  2.5049E-01  2.7687E-01  2.8770E-01  5.0837E-01  5.4467E-01
  5.5827E-01  5.5827E-01  6.8723E-01  6.9294E-01  6.9294E-01  7.1181E-01
  7.2107E-01  8.2244E-01
 Non-SCF case, kpt   16 (  0.11029  0.00000  0.11029), residuals and eigenvalues=
  4.54E-11  1.67E-11  1.48E-11  4.25E-11  8.71E-12  2.73E-11  2.83E-11  3.80E-11
  7.32E-11  6.82E-11  1.31E-11  2.26E-11  3.75E-11  3.25E-11  8.99E-11  2.52E-11
  3.69E-11  7.39E-11  3.64E-11  8.53E-07
 -1.3621E+00 -6.7838E-01 -6.7801E-01 -6.7801E-01  2.7915E-02  2.3705E-01
  2.5102E-01  2.5102E-01  2.7564E-01  2.8803E-01  5.0982E-01  5.4224E-01
  5.5582E-01  5.5582E-01  6.8354E-01  6.9320E-01  6.9320E-01  7.1372E-01
  7.2311E-01  8.2691E-01
 Non-SCF case, kpt   17 (  0.11765  0.00000  0.11765), residuals and eigenvalues=
  4.59E-11  9.01E-11  4.58E-11  6.00E-11  7.92E-12  2.58E-11  3.79E-11  3.74E-11
  6.31E-11  5.97E-11  1.66E-11  2.03E-11  3.49E-11  3.15E-11  7.33E-11  2.01E-11
  4.89E-11  5.32E-11  2.32E-11  1.86E-06
 -1.3621E+00 -6.7846E-01 -6.7804E-01 -6.7804E-01  2.9291E-02  2.3583E-01
  2.5159E-01  2.5159E-01  2.7435E-01  2.8837E-01  5.1133E-01  5.3992E-01
  5.5322E-01  5.5322E-01  6.7807E-01  6.9367E-01  6.9367E-01  7.1578E-01
  7.2702E-01  8.3149E-01
 Non-SCF case, kpt   18 (  0.12500  0.00000  0.12500), residuals and eigenvalues=
  4.51E-11  1.53E-11  1.83E-11  4.42E-11  7.40E-12  2.46E-11  4.73E-11  3.75E-11
  5.54E-11  5.57E-11  2.23E-11  1.91E-11  3.14E-11  2.98E-11  6.26E-11  2.77E-11
  7.75E-11  2.42E-11  9.16E-11  3.99E-06
 -1.3621E+00 -6.7854E-01 -6.7807E-01 -6.7807E-01  3.0750E-02  2.3457E-01
  2.5220E-01  2.5220E-01  2.7298E-01  2.8874E-01  5.1288E-01  5.3769E-01
  5.5046E-01  5.5046E-01  6.7164E-01  6.9435E-01  6.9435E-01  7.1799E-01
  7.3198E-01  8.3618E-01
 Non-SCF case, kpt   19 (  0.13235  0.00000  0.13235), residuals and eigenvalues=
  5.04E-11  1.57E-11  2.11E-11  2.87E-11  5.15E-11  7.02E-11  4.23E-11  8.92E-11
  4.52E-11  7.15E-11  3.28E-11  7.30E-11  2.67E-11  2.91E-11  2.05E-11  1.99E-11
  3.54E-11  8.45E-11  7.76E-11  4.06E-06
 -1.3621E+00 -6.7862E-01 -6.7810E-01 -6.7810E-01  3.2291E-02  2.3326E-01
  2.5284E-01  2.5284E-01  2.7155E-01  2.8912E-01  5.1448E-01  5.3558E-01
  5.4756E-01  5.4756E-01  6.6469E-01  6.9523E-01  6.9523E-01  7.2035E-01
  7.3755E-01  8.4094E-01
 Non-SCF case, kpt   20 (  0.13971  0.00000  0.13971), residuals and eigenvalues=
  4.92E-11  1.67E-11  2.23E-11  2.52E-11  4.76E-11  7.78E-11  3.98E-11  9.87E-11
  3.92E-11  6.51E-11  3.06E-11  7.41E-11  2.88E-11  3.16E-11  5.29E-11  1.45E-11
  2.50E-11  7.11E-11  2.19E-11  9.89E-06
 -1.3621E+00 -6.7871E-01 -6.7813E-01 -6.7813E-01  3.3915E-02  2.3192E-01
  2.5353E-01  2.5353E-01  2.7006E-01  2.8952E-01  5.1610E-01  5.3357E-01
  5.4451E-01  5.4451E-01  6.5746E-01  6.9633E-01  6.9633E-01  7.2286E-01
  7.4347E-01  8.4589E-01
 Non-SCF case, kpt   21 (  0.14706  0.00000  0.14706), residuals and eigenvalues=
  4.67E-11  1.70E-11  2.26E-11  2.24E-11  4.34E-11  8.69E-11  1.30E-11  3.84E-11
  3.39E-11  6.08E-11  2.69E-11  7.38E-11  3.20E-11  3.57E-11  7.79E-11  5.18E-11
  8.02E-11  4.34E-11  3.63E-11  2.26E-05
 -1.3621E+00 -6.7880E-01 -6.7817E-01 -6.7817E-01  3.5618E-02  2.3054E-01
  2.5425E-01  2.5425E-01  2.6852E-01  2.8994E-01  5.1775E-01  5.3168E-01
  5.4135E-01  5.4135E-01  6.5008E-01  6.9764E-01  6.9764E-01  7.2552E-01
  7.4961E-01  8.5124E-01
 Non-SCF case, kpt   22 (  0.15441  0.00000  0.15441), residuals and eigenvalues=
  6.61E-11  2.46E-11  2.13E-11  3.38E-11  3.91E-11  1.40E-11  2.36E-11  9.68E-11
  6.20E-11  9.65E-11  6.31E-11  7.43E-11  2.58E-11  7.57E-11  3.36E-11  7.24E-11
  7.39E-11  5.50E-11  7.14E-11  1.89E-07
 -1.3621E+00 -6.7889E-01 -6.7820E-01 -6.7820E-01  3.7401E-02  2.2914E-01
  2.5502E-01  2.5502E-01  2.6691E-01  2.9037E-01  5.1942E-01  5.2990E-01
  5.3806E-01  5.3806E-01  6.4263E-01  6.9916E-01  6.9916E-01  7.2834E-01
  7.5590E-01  8.5569E-01
 Non-SCF case, kpt   23 (  0.16176  0.00000  0.16176), residuals and eigenvalues=
  2.07E-11  3.13E-11  1.18E-11  2.65E-11  1.05E-11  3.42E-11  3.94E-11  3.66E-11
  1.93E-11  5.61E-11  4.04E-11  6.65E-11  3.37E-11  2.86E-11  7.78E-11  4.69E-11
  7.62E-11  5.75E-11  4.67E-11  3.17E-05
 -1.3620E+00 -6.7899E-01 -6.7824E-01 -6.7824E-01  3.9262E-02  2.2771E-01
  2.5582E-01  2.5582E-01  2.6527E-01  2.9082E-01  5.2111E-01  5.2823E-01
  5.3467E-01  5.3467E-01  6.3515E-01  7.0089E-01  7.0089E-01  7.3133E-01
  7.6227E-01  8.5598E-01
 Non-SCF case, kpt   24 (  0.16912  0.00000  0.16912), residuals and eigenvalues=
  1.96E-11  3.02E-11  1.12E-11  2.39E-11  1.07E-11  3.16E-11  3.62E-11  3.27E-11
  1.58E-11  4.55E-11  4.64E-11  5.98E-11  2.79E-11  2.48E-11  2.83E-11  5.65E-11
  8.89E-11  4.67E-11  5.79E-11  1.77E-05
 -1.3620E+00 -6.7909E-01 -6.7828E-01 -6.7828E-01  4.1199E-02  2.2626E-01
  2.5666E-01  2.5666E-01  2.6357E-01  2.9129E-01  5.2279E-01  5.2665E-01
  5.3119E-01  5.3119E-01  6.2767E-01  7.0281E-01  7.0281E-01  7.3447E-01
  7.6869E-01  8.5412E-01
 Non-SCF case, kpt   25 (  0.17647  0.00000  0.17647), residuals and eigenvalues=
  1.94E-11  2.90E-11  1.10E-11  2.23E-11  1.15E-11  3.06E-11  3.07E-11  3.09E-11
  1.30E-11  4.03E-11  5.39E-11  5.63E-11  1.80E-11  9.75E-11  1.94E-11  4.15E-11
  4.84E-11  4.01E-11  9.58E-11  1.05E-05
 -1.3620E+00 -6.7919E-01 -6.7832E-01 -6.7832E-01  4.3211E-02  2.2480E-01
  2.5754E-01  2.5754E-01  2.6182E-01  2.9176E-01  5.2448E-01  5.2516E-01
  5.2762E-01  5.2762E-01  6.2023E-01  7.0493E-01  7.0493E-01  7.3777E-01
  7.7512E-01  8.5291E-01
 Non-SCF case, kpt   26 (  0.18382  0.00000  0.18382), residuals and eigenvalues=
  2.56E-11  2.44E-11  1.58E-11  2.16E-11  3.63E-11  4.65E-11  1.80E-11  3.66E-11
  9.12E-11  2.92E-11  3.22E-11  3.40E-11  6.29E-11  7.96E-11  6.61E-11  3.48E-11
  7.77E-11  4.68E-11  5.78E-11  2.91E-05
 -1.3620E+00 -6.7929E-01 -6.7836E-01 -6.7836E-01  4.5297E-02  2.2333E-01
  2.5847E-01  2.5847E-01  2.6005E-01  2.9226E-01  5.2377E-01  5.2397E-01
  5.2397E-01  5.2617E-01  6.1284E-01  7.0723E-01  7.0723E-01  7.4124E-01
  7.8153E-01  8.5181E-01
 Non-SCF case, kpt   27 (  0.19118  0.00000  0.19118), residuals and eigenvalues=
  4.05E-11  3.02E-11  1.44E-11  2.53E-11  4.10E-11  6.07E-11  8.49E-11  2.76E-11
  7.10E-11  1.86E-11  3.82E-11  8.69E-11  3.11E-11  7.50E-11  3.06E-11  3.85E-11
  4.84E-11  6.32E-11  1.01E-10  4.83E-05
 -1.3620E+00 -6.7940E-01 -6.7840E-01 -6.7840E-01  4.7455E-02  2.2185E-01
  2.5823E-01  2.5943E-01  2.5943E-01  2.9276E-01  5.2026E-01  5.2026E-01
  5.2244E-01  5.2784E-01  6.0552E-01  7.0972E-01  7.0972E-01  7.4487E-01
  7.8789E-01  8.5070E-01
 Non-SCF case, kpt   28 (  0.19853  0.00000  0.19853), residuals and eigenvalues=
  2.55E-11  1.16E-11  1.82E-11  2.52E-11  1.69E-11  1.70E-11  1.57E-11  2.59E-11
  2.45E-11  6.72E-11  2.20E-11  2.44E-11  6.48E-11  2.32E-11  1.66E-11  1.89E-11
  2.16E-11  6.27E-11  6.70E-11  3.02E-06
 -1.3620E+00 -6.7951E-01 -6.7844E-01 -6.7844E-01  4.9680E-02  2.2036E-01
  2.5639E-01  2.6043E-01  2.6043E-01  2.9327E-01  5.1648E-01  5.1648E-01
  5.2118E-01  5.2949E-01  5.9830E-01  7.1239E-01  7.1239E-01  7.4866E-01
  7.9418E-01  8.4935E-01
 Non-SCF case, kpt   29 (  0.20588  0.00000  0.20588), residuals and eigenvalues=
  2.57E-11  1.30E-11  1.75E-11  2.53E-11  1.80E-11  1.88E-11  1.61E-11  2.39E-11
  2.28E-11  6.80E-11  2.05E-11  2.30E-11  8.14E-11  2.69E-11  1.23E-11  2.10E-11
  7.16E-11  6.91E-11  9.15E-11  7.56E-07
 -1.3620E+00 -6.7961E-01 -6.7848E-01 -6.7848E-01  5.1975E-02  2.1888E-01
  2.5453E-01  2.6147E-01  2.6147E-01  2.9380E-01  5.1266E-01  5.1266E-01
  5.1995E-01  5.3113E-01  5.9120E-01  7.1523E-01  7.1523E-01  7.5262E-01
  8.0036E-01  8.4812E-01
 Non-SCF case, kpt   30 (  0.21324  0.00000  0.21324), residuals and eigenvalues=
  1.56E-11  1.72E-11  1.87E-11  2.90E-11  2.08E-11  5.74E-11  2.34E-11  2.00E-11
  3.18E-11  1.86E-11  1.63E-11  7.79E-11  8.77E-11  4.95E-11  4.95E-11  2.86E-11
  7.64E-11  8.88E-11  1.04E-10  3.20E-06
 -1.3619E+00 -6.7972E-01 -6.7852E-01 -6.7852E-01  5.4333E-02  2.1739E-01
  2.5263E-01  2.6255E-01  2.6255E-01  2.9433E-01  5.0879E-01  5.0879E-01
  5.1872E-01  5.3274E-01  5.8424E-01  7.1823E-01  7.1823E-01  7.5675E-01
  8.0641E-01  8.4686E-01
 Non-SCF case, kpt   31 (  0.22059  0.00000  0.22059), residuals and eigenvalues=
  1.63E-11  1.60E-11  1.89E-11  2.97E-11  2.18E-11  5.52E-11  2.38E-11  1.90E-11
  3.20E-11  1.51E-11  1.94E-11  5.89E-11  9.99E-11  3.90E-11  4.33E-11  4.36E-11
  6.85E-11  8.82E-11  7.77E-11  8.07E-09
 -1.3619E+00 -6.7983E-01 -6.7856E-01 -6.7856E-01  5.6757E-02  2.1592E-01
  2.5073E-01  2.6367E-01  2.6367E-01  2.9487E-01  5.0490E-01  5.0490E-01
  5.1748E-01  5.3432E-01  5.7747E-01  7.2140E-01  7.2140E-01  7.6104E-01
  8.1231E-01  8.4559E-01
 Non-SCF case, kpt   32 (  0.22794  0.00000  0.22794), residuals and eigenvalues=
  1.61E-11  1.66E-11  1.93E-11  3.17E-11  2.45E-11  5.73E-11  2.42E-11  1.61E-11
  3.39E-11  1.39E-11  2.68E-11  4.04E-11  1.57E-11  3.11E-11  4.59E-11  4.74E-11
  7.41E-11  7.15E-11  1.12E-10  4.88E-08
 -1.3619E+00 -6.7995E-01 -6.7861E-01 -6.7861E-01  5.9243E-02  2.1445E-01
  2.4882E-01  2.6483E-01  2.6483E-01  2.9542E-01  5.0097E-01  5.0097E-01
  5.1618E-01  5.3587E-01  5.7093E-01  7.2473E-01  7.2473E-01  7.6549E-01
  8.1803E-01  8.4429E-01
 Non-SCF case, kpt   33 (  0.23529  0.00000  0.23529), residuals and eigenvalues=
  1.51E-11  1.80E-11  1.98E-11  3.46E-11  2.96E-11  5.85E-11  2.55E-11  4.75E-11
  8.36E-11  1.40E-11  2.33E-11  4.37E-11  2.28E-11  2.64E-11  4.13E-11  5.10E-11
  7.41E-11  5.30E-11  2.25E-10  2.46E-08
 -1.3619E+00 -6.8006E-01 -6.7865E-01 -6.7865E-01  6.1788E-02  2.1299E-01
  2.4690E-01  2.6603E-01  2.6603E-01  2.9597E-01  4.9703E-01  4.9703E-01
  5.1475E-01  5.3739E-01  5.6468E-01  7.2822E-01  7.2822E-01  7.7011E-01
  8.2355E-01  8.4298E-01
 Non-SCF case, kpt   34 (  0.24265  0.00000  0.24265), residuals and eigenvalues=
  3.70E-11  8.47E-11  2.32E-11  4.92E-11  2.34E-11  3.01E-11  1.88E-11  3.02E-11
  9.82E-11  6.18E-11  3.33E-11  7.92E-11  8.65E-11  2.96E-11  9.45E-11  5.69E-11
  8.81E-11  6.98E-11  9.76E-10  2.05E-08
 -1.3619E+00 -6.8017E-01 -6.7869E-01 -6.7869E-01  6.4389E-02  2.1155E-01
  2.4498E-01  2.6727E-01  2.6727E-01  2.9654E-01  4.9307E-01  4.9307E-01
  5.1312E-01  5.3887E-01  5.5880E-01  7.3185E-01  7.3185E-01  7.7489E-01
  8.2884E-01  8.4166E-01
 Non-SCF case, kpt   35 (  0.25000  0.00000  0.25000), residuals and eigenvalues=
  3.82E-11  8.69E-11  2.39E-11  4.79E-11  2.25E-11  2.64E-11  1.69E-11  2.34E-11
  9.27E-11  7.17E-11  2.98E-11  7.72E-11  1.05E-11  3.41E-11  8.79E-11  4.95E-11
  7.72E-11  4.80E-11  1.31E-09  1.16E-08
 -1.3619E+00 -6.8028E-01 -6.7874E-01 -6.7874E-01  6.7044E-02  2.1013E-01
  2.4306E-01  2.6855E-01  2.6855E-01  2.9710E-01  4.8910E-01  4.8910E-01
  5.1120E-01  5.4031E-01  5.5338E-01  7.3562E-01  7.3562E-01  7.7984E-01
  8.3388E-01  8.4032E-01
 Non-SCF case, kpt   36 (  0.25735  0.00000  0.25735), residuals and eigenvalues=
  3.93E-11  8.83E-11  2.44E-11  4.64E-11  2.17E-11  2.28E-11  1.50E-11  1.99E-11
  9.07E-11  8.45E-11  2.66E-11  6.16E-11  1.38E-11  3.67E-11  8.00E-11  4.43E-11
  6.95E-11  3.27E-11  3.25E-09  4.23E-09
 -1.3618E+00 -6.8039E-01 -6.7878E-01 -6.7878E-01  6.9749E-02  2.0872E-01
  2.4115E-01  2.6987E-01  2.6987E-01  2.9766E-01  4.8513E-01  4.8513E-01
  5.0888E-01  5.4171E-01  5.4852E-01  7.3954E-01  7.3954E-01  7.8494E-01
  8.3866E-01  8.3897E-01
 Non-SCF case, kpt   37 (  0.26471  0.00000  0.26471), residuals and eigenvalues=
  4.00E-11  8.94E-11  2.47E-11  4.47E-11  2.07E-11  2.01E-11  1.33E-11  2.00E-11
  8.98E-11  9.72E-11  2.82E-11  7.15E-11  1.72E-11  8.16E-11  5.55E-11  4.15E-11
  6.68E-11  2.23E-11  3.67E-09  1.52E-09
 -1.3618E+00 -6.8050E-01 -6.7882E-01 -6.7882E-01  7.2502E-02  2.0734E-01
  2.3925E-01  2.7123E-01  2.7123E-01  2.9823E-01  4.8116E-01  4.8116E-01
  5.0605E-01  5.4307E-01  5.4433E-01  7.4360E-01  7.4360E-01  7.9020E-01
  8.3762E-01  8.4316E-01
 Non-SCF case, kpt   38 (  0.27206  0.00000  0.27206), residuals and eigenvalues=
  4.08E-11  9.03E-11  2.48E-11  4.27E-11  1.98E-11  1.82E-11  1.18E-11  2.19E-11
  8.98E-11  2.23E-11  1.48E-11  2.33E-11  2.04E-11  5.06E-11  3.82E-11  3.90E-11
  6.50E-11  7.46E-11  9.63E-10  1.79E-09
 -1.3618E+00 -6.8061E-01 -6.7887E-01 -6.7887E-01  7.5299E-02  2.0598E-01
  2.3737E-01  2.7262E-01  2.7262E-01  2.9880E-01  4.7720E-01  4.7720E-01
  5.0266E-01  5.4086E-01  5.4439E-01  7.4779E-01  7.4779E-01  7.9562E-01
  8.3627E-01  8.4737E-01
 Non-SCF case, kpt   39 (  0.27941  0.00000  0.27941), residuals and eigenvalues=
  4.16E-11  9.07E-11  2.48E-11  4.05E-11  1.90E-11  1.71E-11  9.89E-11  2.39E-11
  9.04E-11  2.35E-11  2.39E-11  8.49E-11  2.22E-11  3.90E-11  3.61E-11  3.67E-11
  6.30E-11  5.35E-11  2.92E-10  2.83E-09
 -1.3618E+00 -6.8072E-01 -6.7891E-01 -6.7891E-01  7.8136E-02  2.0465E-01
  2.3550E-01  2.7406E-01  2.7406E-01  2.9936E-01  4.7325E-01  4.7325E-01
  4.9870E-01  5.3812E-01  5.4566E-01  7.5211E-01  7.5211E-01  8.0120E-01
  8.3491E-01  8.5129E-01
 Non-SCF case, kpt   40 (  0.28676  0.00000  0.28676), residuals and eigenvalues=
  4.24E-11  9.06E-11  2.46E-11  3.83E-11  1.83E-11  1.63E-11  9.01E-11  2.47E-11
  9.04E-11  2.39E-11  2.49E-11  7.97E-11  2.19E-11  3.11E-11  3.29E-11  3.47E-11
  6.10E-11  9.24E-11  9.95E-11  3.21E-09
 -1.3618E+00 -6.8083E-01 -6.7895E-01 -6.7895E-01  8.1009E-02  2.0334E-01
  2.3365E-01  2.7553E-01  2.7553E-01  2.9993E-01  4.6932E-01  4.6932E-01
  4.9425E-01  5.3605E-01  5.4688E-01  7.5655E-01  7.5655E-01  8.0692E-01
  8.3356E-01  8.5491E-01
 Non-SCF case, kpt   41 (  0.29412  0.00000  0.29412), residuals and eigenvalues=
  3.77E-11  3.67E-11  1.67E-11  5.81E-11  4.83E-11  4.59E-11  8.06E-11  5.69E-11
  7.59E-11  2.35E-11  2.44E-11  5.67E-11  4.92E-11  7.89E-11  3.76E-11  1.72E-11
  5.43E-11  8.67E-11  6.93E-11  2.86E-10
 -1.3618E+00 -6.8094E-01 -6.7899E-01 -6.7899E-01  8.3915E-02  2.0206E-01
  2.3183E-01  2.7703E-01  2.7703E-01  3.0048E-01  4.6541E-01  4.6541E-01
  4.8940E-01  5.3453E-01  5.4806E-01  7.6112E-01  7.6112E-01  8.1279E-01
  8.3221E-01  8.5825E-01
 Non-SCF case, kpt   42 (  0.30147  0.00000  0.30147), residuals and eigenvalues=
  5.34E-11  7.16E-11  2.39E-11  3.65E-11  4.25E-11  3.12E-11  1.45E-11  4.28E-11
  9.75E-11  9.25E-11  1.96E-11  7.14E-11  3.09E-11  3.89E-11  7.93E-11  1.60E-11
  4.60E-11  3.49E-11  9.04E-11  1.27E-09
 -1.3617E+00 -6.8104E-01 -6.7904E-01 -6.7904E-01  8.6847E-02  2.0082E-01
  2.3004E-01  2.7857E-01  2.7857E-01  3.0104E-01  4.6152E-01  4.6152E-01
  4.8426E-01  5.3346E-01  5.4919E-01  7.6582E-01  7.6582E-01  8.1882E-01
  8.3088E-01  8.6130E-01
 Non-SCF case, kpt   43 (  0.30882  0.00000  0.30882), residuals and eigenvalues=
  4.25E-11  1.57E-11  2.94E-11  3.89E-11  2.17E-11  8.03E-11  4.43E-11  2.73E-11
  2.71E-11  1.53E-11  6.18E-11  6.71E-11  1.69E-11  8.75E-12  4.06E-11  5.35E-11
  6.62E-11  3.50E-11  2.15E-11  5.19E-10
 -1.3617E+00 -6.8115E-01 -6.7908E-01 -6.7908E-01  8.9804E-02  1.9961E-01
  2.2828E-01  2.8015E-01  2.8015E-01  3.0159E-01  4.5766E-01  4.5766E-01
  4.7893E-01  5.3275E-01  5.5028E-01  7.7063E-01  7.7063E-01  8.2499E-01
  8.2955E-01  8.6408E-01
 Non-SCF case, kpt   44 (  0.31618  0.00000  0.31618), residuals and eigenvalues=
  4.33E-11  1.64E-11  2.98E-11  4.03E-11  2.06E-11  7.99E-11  4.18E-11  2.52E-11
  2.36E-11  1.32E-11  5.51E-11  8.77E-11  8.71E-11  8.89E-12  3.59E-11  5.06E-11
  7.06E-11  4.96E-11  4.62E-11  3.61E-10
 -1.3617E+00 -6.8125E-01 -6.7912E-01 -6.7912E-01  9.2778E-02  1.9843E-01
  2.2655E-01  2.8175E-01  2.8175E-01  3.0213E-01  4.5384E-01  4.5384E-01
  4.7349E-01  5.3231E-01  5.5132E-01  7.7555E-01  7.7555E-01  8.2825E-01
  8.3129E-01  8.6660E-01
 Non-SCF case, kpt   45 (  0.32353  0.00000  0.32353), residuals and eigenvalues=
  4.38E-11  1.73E-11  3.00E-11  4.13E-11  1.96E-11  7.75E-11  3.85E-11  2.32E-11
  2.04E-11  1.00E-10  5.02E-11  9.87E-11  6.74E-11  1.03E-11  3.01E-11  4.77E-11
  7.81E-11  9.30E-11  4.42E-11  2.59E-10
 -1.3617E+00 -6.8135E-01 -6.7916E-01 -6.7916E-01  9.5764E-02  1.9729E-01
  2.2487E-01  2.8339E-01  2.8339E-01  3.0266E-01  4.5006E-01  4.5006E-01
  4.6800E-01  5.3208E-01  5.5231E-01  7.8059E-01  7.8059E-01  8.2696E-01
  8.3774E-01  8.6888E-01
 Non-SCF case, kpt   46 (  0.33088  0.00000  0.33088), residuals and eigenvalues=
  6.67E-11  3.36E-11  1.99E-11  5.98E-11  3.44E-11  3.43E-11  2.97E-11  7.15E-11
  9.73E-11  3.29E-11  1.25E-11  3.38E-11  4.58E-11  1.41E-11  4.11E-11  4.72E-11
  9.46E-11  6.53E-11  1.12E-11  4.27E-10
 -1.3617E+00 -6.8144E-01 -6.7919E-01 -6.7919E-01  9.8756E-02  1.9619E-01
  2.2322E-01  2.8505E-01  2.8505E-01  3.0319E-01  4.4632E-01  4.4632E-01
  4.6251E-01  5.3201E-01  5.5327E-01  7.8574E-01  7.8574E-01  8.2569E-01
  8.4432E-01  8.7092E-01
 Non-SCF case, kpt   47 (  0.33824  0.00000  0.33824), residuals and eigenvalues=
  5.68E-11  1.53E-11  2.06E-11  3.69E-11  1.24E-11  3.97E-11  2.24E-11  3.94E-11
  4.69E-11  1.16E-11  1.14E-11  7.69E-11  4.13E-11  9.63E-11  7.28E-11  1.28E-11
  8.53E-11  6.87E-11  2.75E-11  6.64E-10
 -1.3617E+00 -6.8154E-01 -6.7923E-01 -6.7923E-01  1.0175E-01  1.9512E-01
  2.2162E-01  2.8674E-01  2.8674E-01  3.0370E-01  4.4263E-01  4.4263E-01
  4.5706E-01  5.3209E-01  5.5417E-01  7.9100E-01  7.9100E-01  8.2446E-01
  8.5103E-01  8.7276E-01
 Non-SCF case, kpt   48 (  0.34559  0.00000  0.34559), residuals and eigenvalues=
  5.73E-11  1.59E-11  3.99E-11  1.83E-11  1.50E-11  3.63E-11  6.69E-11  3.01E-11
  4.38E-11  1.06E-11  1.27E-11  7.59E-11  3.62E-11  2.18E-11  6.06E-11  4.69E-11
  1.35E-11  7.18E-11  2.06E-09  3.42E-08
 -1.3617E+00 -6.8163E-01 -6.7927E-01 -6.7927E-01  1.0473E-01  1.9410E-01
  2.2006E-01  2.8846E-01  2.8846E-01  3.0420E-01  4.3899E-01  4.3899E-01
  4.5167E-01  5.3226E-01  5.5503E-01  7.9637E-01  7.9637E-01  8.2325E-01
  8.5787E-01  8.7439E-01
 Non-SCF case, kpt   49 (  0.35294  0.00000  0.35294), residuals and eigenvalues=
  4.85E-11  1.13E-11  1.18E-11  9.93E-11  9.42E-11  4.77E-11  6.75E-11  2.80E-11
  1.89E-11  2.62E-11  1.41E-11  4.73E-11  2.24E-11  2.81E-11  9.16E-11  2.03E-11
  2.72E-11  4.03E-11  6.42E-11  3.34E-11
 -1.3616E+00 -6.8172E-01 -6.7930E-01 -6.7930E-01  1.0770E-01  1.9312E-01
  2.1855E-01  2.9019E-01  2.9019E-01  3.0469E-01  4.3541E-01  4.3541E-01
  4.4638E-01  5.3250E-01  5.5585E-01  8.0183E-01  8.0183E-01  8.2207E-01
  8.6484E-01  8.7584E-01
 Non-SCF case, kpt   50 (  0.36029  0.00000  0.36029), residuals and eigenvalues=
  4.92E-11  1.12E-11  9.25E-11  1.38E-11  2.13E-11  4.42E-11  7.39E-11  2.46E-11
  2.24E-11  2.32E-11  4.30E-11  1.16E-11  2.21E-11  3.19E-11  7.50E-11  2.21E-11
  3.53E-11  5.79E-11  6.71E-10  4.94E-09
 -1.3616E+00 -6.8180E-01 -6.7934E-01 -6.7934E-01  1.1064E-01  1.9217E-01
  2.1709E-01  2.9194E-01  2.9194E-01  3.0516E-01  4.3189E-01  4.3189E-01
  4.4120E-01  5.3281E-01  5.5662E-01  8.0740E-01  8.0740E-01  8.2093E-01
  8.7191E-01  8.7712E-01
 Non-SCF case, kpt   51 (  0.36765  0.00000  0.36765), residuals and eigenvalues=
  4.05E-11  2.83E-11  1.22E-11  2.26E-11  4.82E-11  7.85E-11  1.35E-11  4.10E-11
  2.68E-11  2.76E-11  1.37E-11  1.24E-11  4.58E-11  2.59E-11  1.77E-11  1.41E-11
  4.19E-11  3.80E-11  5.88E-11  1.86E-11
 -1.3616E+00 -6.8188E-01 -6.7937E-01 -6.7937E-01  1.1355E-01  1.9127E-01
  2.1568E-01  2.9371E-01  2.9371E-01  3.0561E-01  4.2843E-01  4.2843E-01
  4.3614E-01  5.3317E-01  5.5734E-01  8.1306E-01  8.1306E-01  8.1982E-01
  8.7825E-01  8.7911E-01
 Non-SCF case, kpt   52 (  0.37500  0.00000  0.37500), residuals and eigenvalues=
  4.47E-11  2.97E-11  1.31E-11  2.23E-11  5.37E-11  7.77E-11  1.28E-11  2.92E-11
  3.40E-11  2.30E-11  9.50E-12  1.29E-11  4.36E-11  2.93E-11  9.39E-11  6.72E-11
  8.74E-11  2.57E-11  6.03E-09  4.79E-09
 -1.3616E+00 -6.8196E-01 -6.7940E-01 -6.7940E-01  1.1642E-01  1.9042E-01
  2.1433E-01  2.9548E-01  2.9548E-01  3.0605E-01  4.2506E-01  4.2506E-01
  4.3124E-01  5.3356E-01  5.5803E-01  8.1876E-01  8.1882E-01  8.1882E-01
  8.7923E-01  8.8641E-01
 Non-SCF case, kpt   53 (  0.38235  0.00000  0.38235), residuals and eigenvalues=
  4.94E-11  3.08E-11  1.26E-11  2.33E-11  5.92E-11  7.52E-11  1.15E-11  2.68E-11
  3.17E-11  2.03E-11  9.17E-12  1.05E-11  4.29E-11  2.87E-11  6.77E-11  3.62E-11
  5.63E-11  2.46E-11  3.71E-09  4.82E-09
 -1.3616E+00 -6.8203E-01 -6.7943E-01 -6.7943E-01  1.1924E-01  1.8961E-01
  2.1303E-01  2.9725E-01  2.9725E-01  3.0647E-01  4.2176E-01  4.2176E-01
  4.2650E-01  5.3398E-01  5.5867E-01  8.1774E-01  8.2468E-01  8.2468E-01
  8.8010E-01  8.9381E-01
 Non-SCF case, kpt   54 (  0.38971  0.00000  0.38971), residuals and eigenvalues=
  5.40E-11  3.15E-11  1.22E-11  2.40E-11  6.53E-11  7.24E-11  9.91E-12  2.47E-11
  2.95E-11  1.87E-11  9.44E-12  9.03E-12  4.55E-11  2.45E-11  5.35E-11  1.34E-11
  4.12E-11  2.74E-11  2.58E-09  4.86E-09
 -1.3616E+00 -6.8210E-01 -6.7946E-01 -6.7946E-01  1.2199E-01  1.8884E-01
  2.1179E-01  2.9902E-01  2.9902E-01  3.0687E-01  4.1856E-01  4.1856E-01
  4.2193E-01  5.3442E-01  5.5927E-01  8.1677E-01  8.3063E-01  8.3063E-01
  8.8084E-01  9.0131E-01
 Non-SCF case, kpt   55 (  0.39706  0.00000  0.39706), residuals and eigenvalues=
  5.79E-11  3.22E-11  1.18E-11  2.42E-11  7.27E-11  7.06E-11  9.48E-11  2.32E-11
  2.86E-11  1.73E-11  1.01E-11  9.34E-12  5.31E-11  1.96E-11  4.43E-11  8.39E-11
  3.03E-11  3.21E-11  1.48E-09  6.23E-09
 -1.3616E+00 -6.8217E-01 -6.7949E-01 -6.7949E-01  1.2467E-01  1.8813E-01
  2.1060E-01  3.0078E-01  3.0078E-01  3.0725E-01  4.1545E-01  4.1545E-01
  4.1757E-01  5.3486E-01  5.5983E-01  8.1585E-01  8.3666E-01  8.3666E-01
  8.8149E-01  9.0889E-01
 Non-SCF case, kpt   56 (  0.40441  0.00000  0.40441), residuals and eigenvalues=
  7.71E-11  1.52E-11  7.61E-12  2.43E-11  2.94E-11  4.63E-11  2.42E-11  2.02E-11
  4.36E-11  1.72E-11  7.58E-11  1.98E-11  2.78E-11  2.54E-11  2.27E-11  1.10E-11
  2.21E-11  6.22E-11  1.29E-09  5.90E-09
 -1.3616E+00 -6.8223E-01 -6.7951E-01 -6.7951E-01  1.2726E-01  1.8745E-01
  2.0948E-01  3.0252E-01  3.0252E-01  3.0761E-01  4.1245E-01  4.1245E-01
  4.1341E-01  5.3529E-01  5.6034E-01  8.1497E-01  8.4278E-01  8.4278E-01
  8.8204E-01  9.1655E-01
 Non-SCF case, kpt   57 (  0.41176  0.00000  0.41176), residuals and eigenvalues=
  7.74E-11  1.47E-11  1.13E-11  2.10E-11  3.26E-11  4.62E-11  1.99E-11  2.06E-11
  4.42E-11  1.72E-11  2.78E-11  1.46E-11  3.16E-11  3.09E-11  1.93E-11  1.78E-11
  2.20E-11  3.10E-11  6.26E-11  2.37E-10
 -1.3616E+00 -6.8229E-01 -6.7954E-01 -6.7954E-01  1.2975E-01  1.8683E-01
  2.0843E-01  3.0423E-01  3.0423E-01  3.0794E-01  4.0948E-01  4.0957E-01
  4.0957E-01  5.3573E-01  5.6082E-01  8.1416E-01  8.4899E-01  8.4899E-01
  8.8251E-01  9.2427E-01
 Non-SCF case, kpt   58 (  0.41912  0.00000  0.41912), residuals and eigenvalues=
  2.15E-11  5.88E-11  2.99E-11  9.12E-11  3.85E-11  5.71E-11  8.07E-11  1.94E-11
  6.06E-11  3.68E-11  3.72E-11  1.50E-11  3.01E-11  4.75E-11  4.31E-11  1.66E-11
  3.79E-11  4.68E-11  1.91E-09  2.73E-07
 -1.3616E+00 -6.8235E-01 -6.7956E-01 -6.7956E-01  1.3212E-01  1.8625E-01
  2.0743E-01  3.0590E-01  3.0590E-01  3.0826E-01  4.0578E-01  4.0682E-01
  4.0682E-01  5.3615E-01  5.6125E-01  8.1340E-01  8.5528E-01  8.5528E-01
  8.8291E-01  9.3204E-01
 Non-SCF case, kpt   59 (  0.42647  0.00000  0.42647), residuals and eigenvalues=
  9.64E-11  5.73E-11  2.94E-11  8.86E-11  4.73E-11  5.52E-11  8.41E-11  2.28E-11
  6.01E-11  3.02E-11  1.59E-11  2.10E-11  8.83E-11  4.40E-11  6.71E-11  1.99E-11
  1.39E-11  4.24E-11  6.90E-11  2.96E-08
 -1.3615E+00 -6.8240E-01 -6.7958E-01 -6.7958E-01  1.3437E-01  1.8572E-01
  2.0651E-01  3.0752E-01  3.0752E-01  3.0854E-01  4.0234E-01  4.0421E-01
  4.0421E-01  5.3655E-01  5.6165E-01  8.1270E-01  8.6165E-01  8.6165E-01
  8.8324E-01  9.3984E-01
 Non-SCF case, kpt   60 (  0.43382  0.00000  0.43382), residuals and eigenvalues=
  5.26E-11  9.35E-11  1.70E-11  9.76E-11  1.22E-11  2.60E-11  1.20E-11  3.06E-11
  3.29E-11  1.79E-11  1.54E-11  4.60E-11  6.00E-11  5.56E-11  5.30E-11  4.02E-11
  7.81E-11  9.07E-11  6.81E-11  6.29E-07
 -1.3615E+00 -6.8244E-01 -6.7960E-01 -6.7960E-01  1.3647E-01  1.8524E-01
  2.0566E-01  3.0881E-01  3.0907E-01  3.0907E-01  3.9918E-01  4.0177E-01
  4.0177E-01  5.3694E-01  5.6201E-01  8.1206E-01  8.6809E-01  8.6809E-01
  8.8352E-01  9.4764E-01
 Non-SCF case, kpt   61 (  0.44118  0.00000  0.44118), residuals and eigenvalues=
  5.46E-11  8.98E-11  1.54E-11  8.23E-11  9.39E-11  2.64E-11  1.07E-11  2.64E-11
  2.73E-11  1.45E-11  1.90E-11  1.85E-11  3.74E-11  5.92E-11  5.45E-11  6.06E-11
  7.99E-11  6.31E-11  3.99E-11  1.39E-05
 -1.3615E+00 -6.8248E-01 -6.7961E-01 -6.7961E-01  1.3840E-01  1.8481E-01
  2.0488E-01  3.0905E-01  3.1053E-01  3.1053E-01  3.9630E-01  3.9950E-01
  3.9950E-01  5.3729E-01  5.6233E-01  8.1148E-01  8.7461E-01  8.7461E-01
  8.8375E-01  9.5541E-01
 Non-SCF case, kpt   62 (  0.44853  0.00000  0.44853), residuals and eigenvalues=
  5.67E-11  8.72E-11  1.49E-11  7.27E-11  8.86E-11  2.70E-11  8.51E-12  1.60E-11
  1.73E-11  8.36E-11  1.09E-11  1.34E-11  8.58E-11  4.97E-11  5.35E-11  3.45E-11
  3.33E-11  7.56E-11  7.92E-11  4.98E-05
 -1.3615E+00 -6.8252E-01 -6.7963E-01 -6.7963E-01  1.4016E-01  1.8443E-01
  2.0418E-01  3.0926E-01  3.1189E-01  3.1189E-01  3.9371E-01  3.9743E-01
  3.9743E-01  5.3761E-01  5.6261E-01  8.1097E-01  8.8120E-01  8.8120E-01
  8.8393E-01  9.6311E-01
 Non-SCF case, kpt   63 (  0.45588  0.00000  0.45588), residuals and eigenvalues=
  5.62E-11  8.55E-11  1.48E-11  7.59E-11  9.93E-11  3.01E-11  5.55E-12  1.51E-11
  1.69E-11  7.55E-11  7.24E-12  1.01E-11  5.70E-11  4.30E-11  6.97E-11  3.80E-11
  2.45E-11  5.45E-11  6.97E-11  9.41E-06
 -1.3615E+00 -6.8255E-01 -6.7964E-01 -6.7964E-01  1.4173E-01  1.8410E-01
  2.0356E-01  3.0944E-01  3.1313E-01  3.1313E-01  3.9144E-01  3.9557E-01
  3.9557E-01  5.3790E-01  5.6285E-01  8.1052E-01  8.8408E-01  8.8787E-01
  8.8787E-01  9.7178E-01
 Non-SCF case, kpt   64 (  0.46324  0.00000  0.46324), residuals and eigenvalues=
  5.38E-11  8.30E-11  1.45E-11  7.97E-11  1.47E-11  3.39E-11  8.17E-11  1.63E-11
  2.03E-11  7.74E-11  9.15E-11  1.13E-11  8.27E-11  4.06E-11  9.39E-11  4.29E-11
  5.29E-11  2.49E-11  4.20E-11  1.47E-06
 -1.3615E+00 -6.8258E-01 -6.7965E-01 -6.7965E-01  1.4308E-01  1.8382E-01
  2.0303E-01  3.0960E-01  3.1423E-01  3.1423E-01  3.8950E-01  3.9395E-01
  3.9395E-01  5.3814E-01  5.6306E-01  8.1014E-01  8.8420E-01  8.9460E-01
  8.9460E-01  9.6501E-01
 Non-SCF case, kpt   65 (  0.47059  0.00000  0.47059), residuals and eigenvalues=
  5.23E-11  7.84E-11  1.51E-11  7.40E-11  1.54E-11  3.70E-11  6.77E-11  1.80E-11
  2.42E-11  8.13E-11  7.84E-11  1.19E-11  9.93E-11  3.90E-11  2.22E-11  5.64E-11
  6.94E-11  3.63E-11  2.18E-10  2.49E-08
 -1.3615E+00 -6.8260E-01 -6.7966E-01 -6.7966E-01  1.4421E-01  1.8360E-01
  2.0258E-01  3.0973E-01  3.1517E-01  3.1517E-01  3.8789E-01  3.9259E-01
  3.9259E-01  5.3834E-01  5.6322E-01  8.0982E-01  8.8429E-01  9.0139E-01
  9.0139E-01  9.5776E-01
 Non-SCF case, kpt   66 (  0.47794  0.00000  0.47794), residuals and eigenvalues=
  2.71E-11  1.66E-11  1.30E-11  2.16E-11  1.93E-11  9.33E-11  6.02E-11  9.63E-11
  3.63E-11  2.52E-11  1.02E-11  1.71E-11  5.13E-11  1.38E-11  8.21E-11  8.74E-11
  7.85E-11  9.09E-11  5.23E-09  1.73E-09
 -1.3615E+00 -6.8261E-01 -6.7967E-01 -6.7967E-01  1.4511E-01  1.8342E-01
  2.0223E-01  3.0983E-01  3.1592E-01  3.1592E-01  3.8663E-01  3.9150E-01
  3.9150E-01  5.3850E-01  5.6335E-01  8.0958E-01  8.8436E-01  9.0825E-01
  9.0825E-01  9.5056E-01
 Non-SCF case, kpt   67 (  0.48529  0.00000  0.48529), residuals and eigenvalues=
  2.91E-11  1.58E-11  1.33E-11  2.20E-11  2.08E-11  6.72E-12  5.30E-11  9.47E-11
  4.00E-11  3.06E-11  1.03E-11  9.98E-12  5.26E-11  1.24E-11  6.94E-11  2.23E-11
  3.03E-11  3.92E-11  1.99E-08  6.09E-11
 -1.3615E+00 -6.8263E-01 -6.7967E-01 -6.7967E-01  1.4576E-01  1.8329E-01
  2.0198E-01  3.0990E-01  3.1647E-01  3.1647E-01  3.8572E-01  3.9072E-01
  3.9072E-01  5.3862E-01  5.6345E-01  8.0940E-01  8.8440E-01  9.1516E-01
  9.1516E-01  9.4339E-01
 Non-SCF case, kpt   68 (  0.49265  0.00000  0.49265), residuals and eigenvalues=
  3.22E-11  1.52E-11  1.36E-11  2.15E-11  2.12E-11  7.24E-12  4.60E-11  9.68E-11
  4.00E-11  3.70E-11  1.01E-11  1.03E-11  5.06E-11  1.29E-11  7.74E-11  3.74E-11
  3.73E-11  2.47E-11  3.96E-06  7.16E-11
 -1.3615E+00 -6.8263E-01 -6.7968E-01 -6.7968E-01  1.4615E-01  1.8321E-01
  2.0183E-01  3.0994E-01  3.1680E-01  3.1680E-01  3.8517E-01  3.9024E-01
  3.9024E-01  5.3869E-01  5.6350E-01  8.0930E-01  8.8443E-01  9.2212E-01
  9.2213E-01  9.3628E-01
 Non-SCF case, kpt   69 (  0.50000  0.00000  0.50000), residuals and eigenvalues=
  2.46E-11  4.97E-11  5.46E-11  4.20E-11  2.12E-11  2.62E-11  9.11E-12  4.10E-11
  9.39E-12  1.10E-11  5.77E-11  9.92E-12  6.18E-11  5.38E-11  9.35E-11  1.64E-11
  4.50E-11  7.71E-11  1.18E-05  7.60E-11
 -1.3615E+00 -6.8264E-01 -6.7968E-01 -6.7968E-01  1.4628E-01  1.8319E-01
  2.0178E-01  3.0995E-01  3.1691E-01  3.1691E-01  3.8499E-01  3.9007E-01
  3.9007E-01  5.3871E-01  5.6352E-01  8.0926E-01  8.8444E-01  9.2856E-01
  9.2883E-01  9.2979E-01
 Non-SCF case, kpt   70 (  0.50000  0.00758  0.50758), residuals and eigenvalues=
  3.63E-11  8.13E-11  2.13E-11  5.20E-11  2.26E-11  1.51E-11  6.16E-11  1.70E-11
  2.02E-11  1.85E-11  4.01E-11  9.10E-11  1.73E-11  3.10E-11  3.10E-11  6.56E-11
  3.95E-11  7.89E-11  1.03E-08  1.16E-08
 -1.3615E+00 -6.8263E-01 -6.7968E-01 -6.7968E-01  1.4632E-01  1.8319E-01
  2.0176E-01  3.0986E-01  3.1692E-01  3.1697E-01  3.8426E-01  3.9004E-01
  3.9078E-01  5.3892E-01  5.6360E-01  8.0901E-01  8.8343E-01  9.2847E-01
  9.2938E-01  9.2983E-01
 Non-SCF case, kpt   71 (  0.50000  0.01515  0.51515), residuals and eigenvalues=
  3.61E-11  8.42E-11  1.95E-11  4.05E-11  2.27E-11  1.36E-11  5.61E-11  1.63E-11
  2.12E-11  1.69E-11  3.20E-11  7.06E-11  2.95E-11  2.73E-11  2.32E-11  3.94E-11
  3.63E-11  8.84E-11  7.77E-11  2.30E-10
 -1.3615E+00 -6.8263E-01 -6.7968E-01 -6.7968E-01  1.4644E-01  1.8320E-01
  2.0169E-01  3.0955E-01  3.1692E-01  3.1711E-01  3.8269E-01  3.8992E-01
  3.9227E-01  5.3955E-01  5.6383E-01  8.0826E-01  8.8078E-01  9.2815E-01
  9.2820E-01  9.2995E-01
 Non-SCF case, kpt   72 (  0.50000  0.02273  0.52273), residuals and eigenvalues=
  3.53E-11  8.78E-11  1.91E-11  3.69E-11  2.36E-11  1.30E-11  5.43E-11  1.68E-11
  2.24E-11  1.59E-11  2.68E-11  6.60E-11  3.71E-11  2.46E-11  1.77E-11  7.64E-11
  8.08E-11  4.59E-11  5.17E-11  9.25E-11
 -1.3615E+00 -6.8262E-01 -6.7969E-01 -6.7968E-01  1.4664E-01  1.8323E-01
  2.0160E-01  3.0903E-01  3.1692E-01  3.1735E-01  3.8086E-01  3.8973E-01
  3.9396E-01  5.4059E-01  5.6422E-01  8.0697E-01  8.7721E-01  9.2614E-01
  9.2775E-01  9.3015E-01
 Non-SCF case, kpt   73 (  0.50000  0.03030  0.53030), residuals and eigenvalues=
  4.54E-11  9.70E-11  9.16E-12  7.49E-11  9.77E-11  5.77E-11  5.40E-11  9.82E-12
  4.11E-11  6.12E-11  8.32E-11  3.08E-11  4.94E-11  6.66E-11  4.68E-11  1.35E-11
  6.86E-11  7.94E-11  6.92E-10  6.66E-10
 -1.3615E+00 -6.8261E-01 -6.7970E-01 -6.7968E-01  1.4691E-01  1.8326E-01
  2.0146E-01  3.0832E-01  3.1692E-01  3.1768E-01  3.7896E-01  3.8947E-01
  3.9569E-01  5.4205E-01  5.6476E-01  8.0511E-01  8.7337E-01  9.2336E-01
  9.2714E-01  9.3042E-01
 Non-SCF case, kpt   74 (  0.50000  0.03788  0.53788), residuals and eigenvalues=
  9.99E-11  3.97E-11  2.40E-11  1.82E-11  2.82E-11  6.58E-12  9.31E-12  1.45E-11
  2.77E-11  1.52E-11  4.17E-11  5.37E-11  9.19E-11  2.56E-11  5.73E-11  9.90E-11
  5.74E-11  8.64E-11  6.08E-09  9.47E-08
 -1.3615E+00 -6.8260E-01 -6.7972E-01 -6.7968E-01  1.4726E-01  1.8330E-01
  2.0128E-01  3.0740E-01  3.1692E-01  3.1810E-01  3.7707E-01  3.8913E-01
  3.9736E-01  5.4390E-01  5.6546E-01  8.0264E-01  8.6966E-01  9.1989E-01
  9.2638E-01  9.3076E-01
 Non-SCF case, kpt   75 (  0.50000  0.04545  0.54545), residuals and eigenvalues=
  9.60E-11  7.81E-11  8.16E-11  6.15E-11  1.98E-11  8.79E-11  1.36E-11  2.03E-11
  6.16E-11  2.57E-11  6.63E-11  9.69E-11  8.57E-11  4.20E-11  4.18E-11  5.86E-11
  4.05E-11  9.46E-11  1.77E-10  2.98E-09
 -1.3615E+00 -6.8258E-01 -6.7974E-01 -6.7968E-01  1.4769E-01  1.8335E-01
  2.0107E-01  3.0628E-01  3.1692E-01  3.1862E-01  3.7522E-01  3.8871E-01
  3.9897E-01  5.4614E-01  5.6632E-01  7.9956E-01  8.6633E-01  9.1575E-01
  9.2550E-01  9.3113E-01
 Non-SCF case, kpt   76 (  0.50000  0.05303  0.55303), residuals and eigenvalues=
  9.09E-11  7.60E-11  7.14E-11  6.01E-11  1.82E-11  1.77E-11  1.47E-11  2.02E-11
  5.07E-11  3.03E-11  2.02E-11  1.01E-11  9.35E-11  3.19E-11  3.24E-11  5.66E-11
  4.60E-11  5.68E-11  1.12E-10  1.49E-09
 -1.3615E+00 -6.8256E-01 -6.7976E-01 -6.7968E-01  1.4820E-01  1.8341E-01
  2.0082E-01  3.0497E-01  3.1693E-01  3.1922E-01  3.7345E-01  3.8823E-01
  4.0048E-01  5.4876E-01  5.6732E-01  7.9585E-01  8.6352E-01  9.1103E-01
  9.2452E-01  9.3154E-01
 Non-SCF case, kpt   77 (  0.50000  0.06061  0.56061), residuals and eigenvalues=
  9.46E-11  6.93E-11  7.29E-11  5.76E-11  1.58E-11  4.12E-11  1.69E-11  2.32E-11
  5.62E-11  2.64E-11  7.67E-11  2.26E-11  8.11E-11  2.67E-11  1.92E-11  5.72E-11
  1.41E-11  5.42E-11  2.02E-10  5.54E-09
 -1.3615E+00 -6.8253E-01 -6.7978E-01 -6.7968E-01  1.4877E-01  1.8347E-01
  2.0054E-01  3.0347E-01  3.1693E-01  3.1991E-01  3.7177E-01  3.8766E-01
  4.0189E-01  5.5173E-01  5.6848E-01  7.9157E-01  8.6127E-01  9.0579E-01
  9.2345E-01  9.3196E-01
 Non-SCF case, kpt   78 (  0.50000  0.06818  0.56818), residuals and eigenvalues=
  9.04E-11  8.45E-11  1.80E-11  6.10E-11  6.31E-11  1.53E-11  8.98E-11  4.46E-11
  8.15E-11  1.40E-11  2.09E-11  1.70E-11  4.96E-11  7.80E-11  3.12E-11  2.08E-11
  4.74E-11  5.77E-11  7.55E-11  4.67E-10
 -1.3615E+00 -6.8250E-01 -6.7981E-01 -6.7968E-01  1.4942E-01  1.8355E-01
  2.0023E-01  3.0179E-01  3.1693E-01  3.2069E-01  3.7019E-01  3.8703E-01
  4.0320E-01  5.5504E-01  5.6980E-01  7.8678E-01  8.5956E-01  9.0009E-01
  9.2231E-01  9.3237E-01
 Non-SCF case, kpt   79 (  0.50000  0.07576  0.57576), residuals and eigenvalues=
  2.67E-11  1.25E-11  3.73E-11  5.01E-11  5.18E-11  8.47E-11  8.91E-12  1.21E-11
  7.03E-11  2.23E-11  1.71E-11  7.31E-11  2.73E-11  4.56E-11  7.97E-11  2.35E-11
  3.58E-11  3.30E-11  3.17E-10  2.51E-09
 -1.3615E+00 -6.8247E-01 -6.7984E-01 -6.7969E-01  1.5014E-01  1.8364E-01
  1.9989E-01  2.9994E-01  3.1693E-01  3.2154E-01  3.6872E-01  3.8633E-01
  4.0441E-01  5.5868E-01  5.7126E-01  7.8155E-01  8.5837E-01  8.9400E-01
  9.2113E-01  9.3272E-01
 Non-SCF case, kpt   80 (  0.50000  0.08333  0.58333), residuals and eigenvalues=
  9.74E-11  1.27E-11  3.79E-11  5.07E-11  6.26E-11  8.93E-11  1.14E-11  1.16E-11
  7.79E-11  2.50E-11  1.85E-11  9.64E-12  2.00E-11  3.95E-11  9.62E-11  1.64E-11
  3.73E-11  7.37E-11  1.51E-10  5.22E-10
 -1.3615E+00 -6.8244E-01 -6.7988E-01 -6.7969E-01  1.5092E-01  1.8374E-01
  1.9952E-01  2.9795E-01  3.1694E-01  3.2247E-01  3.6737E-01  3.8556E-01
  4.0551E-01  5.6262E-01  5.7289E-01  7.7598E-01  8.5764E-01  8.8757E-01
  9.1992E-01  9.3300E-01
 Non-SCF case, kpt   81 (  0.50000  0.09091  0.59091), residuals and eigenvalues=
  6.24E-11  9.36E-11  1.86E-11  7.46E-11  4.65E-11  1.49E-11  8.92E-11  4.07E-11
  7.87E-11  1.57E-11  2.93E-11  2.59E-11  3.44E-11  6.04E-11  2.40E-11  3.67E-11
  2.04E-11  5.02E-11  3.52E-11  1.22E-10
 -1.3615E+00 -6.8240E-01 -6.7991E-01 -6.7969E-01  1.5176E-01  1.8385E-01
  1.9913E-01  2.9581E-01  3.1694E-01  3.2348E-01  3.6613E-01  3.8471E-01
  4.0651E-01  5.6684E-01  5.7467E-01  7.7014E-01  8.5730E-01  8.8086E-01
  9.1869E-01  9.3316E-01
 Non-SCF case, kpt   82 (  0.50000  0.09848  0.59848), residuals and eigenvalues=
  5.91E-11  9.68E-11  1.73E-11  7.30E-11  4.30E-11  1.52E-11  9.10E-11  4.89E-11
  8.30E-11  1.82E-11  1.96E-11  2.76E-11  2.77E-11  6.92E-11  2.79E-11  3.10E-11
  2.23E-11  1.69E-11  5.56E-11  5.77E-10
 -1.3615E+00 -6.8236E-01 -6.7995E-01 -6.7969E-01  1.5266E-01  1.8397E-01
  1.9872E-01  2.9356E-01  3.1694E-01  3.2456E-01  3.6501E-01  3.8381E-01
  4.0742E-01  5.7133E-01  5.7660E-01  7.6410E-01  8.5730E-01  8.7391E-01
  9.1746E-01  9.3317E-01
 Non-SCF case, kpt   83 (  0.50000  0.10606  0.60606), residuals and eigenvalues=
  5.64E-11  1.00E-10  1.55E-11  7.03E-11  3.84E-11  1.49E-11  9.42E-11  5.75E-11
  8.67E-11  2.03E-11  8.58E-11  2.91E-11  2.64E-11  7.39E-11  2.86E-11  2.37E-11
  2.46E-11  1.60E-11  6.21E-11  9.23E-10
 -1.3615E+00 -6.8232E-01 -6.7999E-01 -6.7969E-01  1.5361E-01  1.8410E-01
  1.9829E-01  2.9122E-01  3.1695E-01  3.2571E-01  3.6400E-01  3.8283E-01
  4.0824E-01  5.7607E-01  5.7869E-01  7.5792E-01  8.5759E-01  8.6678E-01
  9.1623E-01  9.3298E-01
 Non-SCF case, kpt   84 (  0.50000  0.11364  0.61364), residuals and eigenvalues=
  3.11E-11  1.76E-11  9.58E-11  3.71E-11  1.05E-11  6.23E-11  5.21E-11  2.47E-11
  7.68E-11  4.47E-11  4.60E-11  7.74E-11  1.61E-11  4.85E-11  4.43E-11  4.94E-11
  2.76E-11  9.37E-11  6.53E-11  2.33E-09
 -1.3615E+00 -6.8228E-01 -6.8004E-01 -6.7970E-01  1.5461E-01  1.8424E-01
  1.9784E-01  2.8879E-01  3.1695E-01  3.2691E-01  3.6310E-01  3.8180E-01
  4.0897E-01  5.8093E-01  5.8103E-01  7.5165E-01  8.5814E-01  8.5950E-01
  9.1503E-01  9.3255E-01
 Non-SCF case, kpt   85 (  0.50000  0.12121  0.62121), residuals and eigenvalues=
  3.01E-11  1.88E-11  1.35E-11  3.96E-11  1.10E-11  6.31E-11  2.30E-11  2.90E-11
  8.76E-11  6.27E-11  6.56E-11  9.17E-11  1.58E-11  3.48E-11  7.31E-11  8.26E-11
  4.02E-11  9.04E-11  6.15E-11  2.75E-09
 -1.3615E+00 -6.8223E-01 -6.8009E-01 -6.7970E-01  1.5566E-01  1.8440E-01
  1.9737E-01  2.8631E-01  3.1695E-01  3.2818E-01  3.6229E-01  3.8070E-01
  4.0962E-01  5.8333E-01  5.8619E-01  7.4533E-01  8.5211E-01  8.5891E-01
  9.1385E-01  9.3186E-01
 Non-SCF case, kpt   86 (  0.50000  0.12879  0.62879), residuals and eigenvalues=
  2.72E-11  2.23E-11  1.39E-11  4.16E-11  1.43E-11  9.02E-11  2.07E-11  4.62E-11
  9.40E-11  7.88E-11  8.57E-11  1.02E-11  3.03E-11  4.04E-11  1.54E-11  9.71E-12
  9.24E-11  2.50E-11  2.83E-10  2.49E-09
 -1.3615E+00 -6.8218E-01 -6.8014E-01 -6.7970E-01  1.5674E-01  1.8457E-01
  1.9690E-01  2.8380E-01  3.1696E-01  3.2951E-01  3.6157E-01  3.7955E-01
  4.1020E-01  5.8588E-01  5.9153E-01  7.3899E-01  8.4463E-01  8.5988E-01
  9.1271E-01  9.3089E-01
 Non-SCF case, kpt   87 (  0.50000  0.13636  0.63636), residuals and eigenvalues=
  9.62E-11  2.54E-11  1.21E-11  4.51E-11  2.31E-11  1.17E-11  2.35E-11  6.88E-11
  2.03E-11  8.67E-11  1.19E-11  6.67E-11  5.05E-11  2.66E-11  4.42E-11  6.06E-11
  8.93E-11  6.61E-11  2.60E-10  4.96E-09
 -1.3615E+00 -6.8213E-01 -6.8019E-01 -6.7970E-01  1.5784E-01  1.8475E-01
  1.9641E-01  2.8128E-01  3.1696E-01  3.3089E-01  3.6094E-01  3.7834E-01
  4.1071E-01  5.8858E-01  5.9704E-01  7.3265E-01  8.3710E-01  8.6102E-01
  9.1161E-01  9.2964E-01
 Non-SCF case, kpt   88 (  0.50000  0.14394  0.64394), residuals and eigenvalues=
  5.20E-11  2.09E-11  5.36E-11  3.79E-11  1.26E-11  3.97E-11  9.95E-12  3.18E-11
  1.56E-11  3.51E-11  2.53E-11  5.05E-11  1.68E-11  2.30E-11  1.86E-11  3.10E-11
  7.39E-11  4.74E-11  4.68E-11  1.16E-09
 -1.3615E+00 -6.8207E-01 -6.8024E-01 -6.7970E-01  1.5897E-01  1.8495E-01
  1.9592E-01  2.7877E-01  3.1696E-01  3.3232E-01  3.6038E-01  3.7707E-01
  4.1117E-01  5.9144E-01  6.0270E-01  7.2634E-01  8.2955E-01  8.6233E-01
  9.1056E-01  9.2810E-01
 Non-SCF case, kpt   89 (  0.50000  0.15152  0.65152), residuals and eigenvalues=
  3.53E-11  6.91E-11  1.95E-11  3.01E-11  9.22E-11  8.93E-11  7.51E-11  6.58E-11
  9.93E-11  1.55E-11  1.21E-11  2.53E-11  1.21E-11  2.72E-11  7.57E-11  3.37E-11
  2.83E-11  2.22E-11  3.67E-10  3.76E-09
 -1.3615E+00 -6.8202E-01 -6.8030E-01 -6.7971E-01  1.6011E-01  1.8516E-01
  1.9542E-01  2.7629E-01  3.1697E-01  3.3379E-01  3.5989E-01  3.7576E-01
  4.1156E-01  5.9444E-01  6.0847E-01  7.2008E-01  8.2200E-01  8.6378E-01
  9.0957E-01  9.2630E-01
 Non-SCF case, kpt   90 (  0.50000  0.15909  0.65909), residuals and eigenvalues=
  3.28E-11  6.63E-11  2.05E-11  3.10E-11  9.68E-11  7.93E-11  7.58E-11  6.72E-11
  8.96E-11  1.71E-11  1.25E-11  2.79E-11  1.37E-11  3.45E-11  5.79E-11  3.95E-11
  5.06E-11  2.63E-11  2.79E-10  1.84E-09
 -1.3615E+00 -6.8196E-01 -6.8036E-01 -6.7971E-01  1.6125E-01  1.8539E-01
  1.9492E-01  2.7387E-01  3.1697E-01  3.3530E-01  3.5946E-01  3.7439E-01
  4.1191E-01  5.9760E-01  6.1433E-01  7.1387E-01  8.1448E-01  8.6536E-01
  9.0863E-01  9.2426E-01
 Non-SCF case, kpt   91 (  0.50000  0.16667  0.66667), residuals and eigenvalues=
  3.14E-11  6.42E-11  2.10E-11  3.16E-11  9.92E-11  6.62E-11  7.23E-11  6.49E-11
  8.50E-11  1.65E-11  1.25E-11  2.85E-11  1.64E-11  3.78E-11  4.96E-11  4.40E-11
  8.59E-11  2.92E-11  2.28E-10  1.01E-09
 -1.3615E+00 -6.8190E-01 -6.8042E-01 -6.7971E-01  1.6238E-01  1.8563E-01
  1.9442E-01  2.7152E-01  3.1698E-01  3.3685E-01  3.5909E-01  3.7298E-01
  4.1221E-01  6.0090E-01  6.2026E-01  7.0773E-01  8.0703E-01  8.6707E-01
  9.0775E-01  9.2202E-01
 Non-SCF case, kpt   92 (  0.50000  0.17424  0.67424), residuals and eigenvalues=
  3.15E-11  6.28E-11  2.13E-11  3.19E-11  1.12E-11  5.42E-11  6.69E-11  5.80E-11
  8.66E-11  1.44E-11  1.42E-11  1.21E-11  1.97E-11  3.95E-11  4.80E-11  5.22E-11
  5.77E-11  3.27E-11  1.92E-10  5.72E-10
 -1.3615E+00 -6.8184E-01 -6.8048E-01 -6.7971E-01  1.6349E-01  1.8588E-01
  1.9392E-01  2.6928E-01  3.1698E-01  3.3844E-01  3.5877E-01  3.7153E-01
  4.1247E-01  6.0435E-01  6.2622E-01  7.0167E-01  7.9967E-01  8.6889E-01
  9.0695E-01  9.1962E-01
 Non-SCF case, kpt   93 (  0.50000  0.18182  0.68182), residuals and eigenvalues=
  5.19E-11  6.44E-11  6.35E-11  2.94E-11  3.36E-11  7.93E-11  7.76E-11  3.55E-11
  8.81E-11  7.78E-11  3.80E-11  4.57E-11  4.11E-11  7.76E-11  2.76E-11  9.41E-11
  3.88E-11  5.27E-11  2.94E-11  8.14E-11
 -1.3615E+00 -6.8177E-01 -6.8055E-01 -6.7971E-01  1.6456E-01  1.8615E-01
  1.9342E-01  2.6716E-01  3.1698E-01  3.4005E-01  3.5849E-01  3.7003E-01
  4.1269E-01  6.0795E-01  6.3217E-01  6.9569E-01  7.9245E-01  8.7083E-01
  9.0621E-01  9.1708E-01
 Non-SCF case, kpt   94 (  0.50000  0.18939  0.68939), residuals and eigenvalues=
  4.61E-11  8.44E-11  4.90E-11  6.10E-11  4.38E-11  7.61E-11  2.16E-11  7.25E-11
  2.24E-11  4.18E-11  2.79E-11  3.91E-11  4.25E-11  7.04E-11  3.58E-11  3.64E-11
  1.73E-11  5.61E-11  6.50E-10  4.10E-09
 -1.3615E+00 -6.8171E-01 -6.8061E-01 -6.7972E-01  1.6558E-01  1.8644E-01
  1.9292E-01  2.6518E-01  3.1698E-01  3.4169E-01  3.5825E-01  3.6850E-01
  4.1288E-01  6.1169E-01  6.3807E-01  6.8981E-01  7.8542E-01  8.7287E-01
  9.0554E-01  9.1443E-01
 Non-SCF case, kpt   95 (  0.50000  0.19697  0.69697), residuals and eigenvalues=
  6.46E-11  3.55E-11  5.58E-11  3.73E-11  5.43E-11  4.32E-11  2.25E-11  8.05E-11
  6.43E-11  5.70E-11  4.05E-11  3.72E-11  3.17E-11  4.01E-11  7.96E-11  9.16E-11
  2.63E-11  1.82E-11  5.33E-11  2.75E-11
 -1.3615E+00 -6.8164E-01 -6.8068E-01 -6.7972E-01  1.6653E-01  1.8674E-01
  1.9243E-01  2.6336E-01  3.1698E-01  3.4336E-01  3.5805E-01  3.6693E-01
  4.1304E-01  6.1557E-01  6.4384E-01  6.8402E-01  7.7865E-01  8.7501E-01
  9.0495E-01  9.1171E-01
 Non-SCF case, kpt   96 (  0.50000  0.20455  0.70455), residuals and eigenvalues=
  4.86E-11  1.17E-11  7.40E-12  3.91E-11  1.35E-11  4.26E-11  3.39E-11  1.78E-11
  2.43E-11  8.44E-11  1.34E-11  1.25E-11  2.99E-11  3.50E-11  2.65E-11  1.82E-11
  6.06E-11  6.72E-11  7.89E-11  6.54E-11
 -1.3615E+00 -6.8158E-01 -6.8074E-01 -6.7972E-01  1.6740E-01  1.8705E-01
  1.9195E-01  2.6174E-01  3.1699E-01  3.4504E-01  3.5788E-01  3.6534E-01
  4.1317E-01  6.1961E-01  6.4941E-01  6.7834E-01  7.7221E-01  8.7724E-01
  9.0443E-01  9.0894E-01
 Non-SCF case, kpt   97 (  0.50000  0.21212  0.71212), residuals and eigenvalues=
  4.23E-11  3.20E-11  6.47E-11  7.62E-11  1.93E-11  1.81E-11  6.38E-11  4.13E-11
  2.59E-11  5.05E-11  4.96E-11  6.60E-11  9.54E-11  2.68E-11  8.22E-11  7.43E-12
  6.92E-11  4.50E-11  3.79E-11  2.46E-11
 -1.3615E+00 -6.8151E-01 -6.8081E-01 -6.7972E-01  1.6816E-01  1.8738E-01
  1.9148E-01  2.6032E-01  3.1699E-01  3.4674E-01  3.5774E-01  3.6371E-01
  4.1328E-01  6.2377E-01  6.5467E-01  6.7277E-01  7.6622E-01  8.7956E-01
  9.0399E-01  9.0614E-01
 Non-SCF case, kpt   98 (  0.50000  0.21970  0.71970), residuals and eigenvalues=
  6.56E-11  1.22E-11  6.09E-11  2.74E-11  4.20E-11  7.30E-11  3.86E-11  1.66E-11
  4.76E-11  2.43E-11  8.46E-11  2.22E-11  1.42E-11  4.06E-11  2.59E-11  3.81E-11
  8.86E-11  4.14E-11  8.47E-11  3.38E-11
 -1.3615E+00 -6.8144E-01 -6.8088E-01 -6.7972E-01  1.6882E-01  1.8773E-01
  1.9101E-01  2.5913E-01  3.1699E-01  3.4844E-01  3.5764E-01  3.6207E-01
  4.1337E-01  6.2809E-01  6.5947E-01  6.6731E-01  7.6083E-01  8.8196E-01
  9.0333E-01  9.0362E-01
 Non-SCF case, kpt   99 (  0.50000  0.22727  0.72727), residuals and eigenvalues=
  2.39E-11  1.56E-11  1.74E-11  9.68E-11  7.99E-11  8.84E-11  3.49E-11  4.25E-11
  3.75E-11  4.94E-11  7.17E-11  1.23E-11  5.29E-11  3.08E-11  9.83E-11  3.85E-11
  2.90E-11  2.59E-11  4.03E-10  1.80E-10
 -1.3615E+00 -6.8137E-01 -6.8095E-01 -6.7972E-01  1.6935E-01  1.8809E-01
  1.9056E-01  2.5818E-01  3.1699E-01  3.5016E-01  3.5756E-01  3.6040E-01
  4.1343E-01  6.3253E-01  6.6197E-01  6.6360E-01  7.5623E-01  8.8443E-01
  9.0052E-01  9.0334E-01
 Non-SCF case, kpt  100 (  0.50000  0.23485  0.73485), residuals and eigenvalues=
  2.18E-11  8.01E-11  7.94E-11  4.61E-11  5.93E-11  3.68E-11  1.52E-11  1.44E-11
  4.64E-11  2.72E-11  5.89E-11  6.99E-11  2.12E-11  4.04E-11  8.34E-11  5.28E-11
  8.81E-11  3.96E-11  4.68E-11  6.21E-11
 -1.3615E+00 -6.8130E-01 -6.8102E-01 -6.7972E-01  1.6973E-01  1.8847E-01
[...]
 kpt#  21, nband= 20, wtk=  1.00000, kpt=  0.5000  0.0000  0.5000 (reduced coord)
 -37.04860  -18.57549  -18.49495  -18.49495    3.98045    4.98477    5.49058    8.43421
   8.62360    8.62360   10.47601   10.61444   10.61444   14.65897   15.33406   22.02115
  24.06675   25.26745   25.27467   25.30075

== END DATASET(S) ==============================================================
================================================================================
  
 -outvars: echo values of variables after computation  --------
            acell      1.0438847158E+01  1.0438847158E+01  1.0438847158E+01 Bohr
              amu      4.00780000E+01
             ecut      2.50000000E+01 Hartree
           enunit1          0
           enunit2          1
           enunit3          1
           etotal1    -3.6747685637E+01
            fcart1    -0.0000000000E+00 -0.0000000000E+00 -0.0000000000E+00
-          fftalg         112
           getden1          0
           getden2         -1
           getden3         -1
             iscf1          7
             iscf2         -2
             iscf3         -2
           istwfk2       2    0    0    0    0    0    0    0    0    0
                         0    0    0    0    0    0    0    0    0    0
                         0    0    0    0    0    0    0    0    0    0
                         0    0    0    0    0    0    0    0    0    0
                         0    0    0    0    0    0    0    0    0    0
           istwfk3       0    0    0    0    0    0    0    0    0    0
                         0    0    0    0    0    0    0    0    0    0
                         5
                       outvar_i_n : Printing only first  50 k-points.
              ixc          11
           jdtset        1    2    3
              kpt1    -8.33333333E-02 -1.66666667E-01  0.00000000E+00
                      -8.33333333E-02 -3.33333333E-01  0.00000000E+00
                      -1.66666667E-01 -2.50000000E-01  0.00000000E+00
                      -8.33333333E-02 -2.50000000E-01  8.33333333E-02
                      -8.33333333E-02  5.00000000E-01  0.00000000E+00
                      -1.66666667E-01 -4.16666667E-01  0.00000000E+00
                      -8.33333333E-02 -4.16666667E-01  8.33333333E-02
                      -2.50000000E-01 -3.33333333E-01  0.00000000E+00
                      -1.66666667E-01 -3.33333333E-01  8.33333333E-02
                      -8.33333333E-02 -3.33333333E-01  1.66666667E-01
                      -8.33333333E-02  3.33333333E-01  0.00000000E+00
                      -1.66666667E-01  4.16666667E-01  0.00000000E+00
                      -2.50000000E-01  5.00000000E-01  0.00000000E+00
                      -1.66666667E-01  5.00000000E-01  8.33333333E-02
                      -3.33333333E-01 -4.16666667E-01  0.00000000E+00
                      -2.50000000E-01 -4.16666667E-01  8.33333333E-02
                      -1.66666667E-01 -4.16666667E-01  1.66666667E-01
                      -8.33333333E-02 -4.16666667E-01  2.50000000E-01
                      -8.33333333E-02  1.66666667E-01  0.00000000E+00
                      -1.66666667E-01  2.50000000E-01  0.00000000E+00
                      -2.50000000E-01  3.33333333E-01  0.00000000E+00
                      -3.33333333E-01  4.16666667E-01  0.00000000E+00
                      -4.16666667E-01  5.00000000E-01  0.00000000E+00
                      -3.33333333E-01  5.00000000E-01  8.33333333E-02
                      -2.50000000E-01  5.00000000E-01  1.66666667E-01
                      -8.33333333E-02  0.00000000E+00  0.00000000E+00
                      -2.50000000E-01  0.00000000E+00  0.00000000E+00
                      -4.16666667E-01  0.00000000E+00  0.00000000E+00
              kpt2     0.00000000E+00  0.00000000E+00  0.00000000E+00
                       7.35294118E-03  0.00000000E+00  7.35294118E-03
                       1.47058824E-02  0.00000000E+00  1.47058824E-02
                       2.20588235E-02  0.00000000E+00  2.20588235E-02
                       2.94117647E-02  0.00000000E+00  2.94117647E-02
                       3.67647059E-02  0.00000000E+00  3.67647059E-02
                       4.41176471E-02  0.00000000E+00  4.41176471E-02
                       5.14705882E-02  0.00000000E+00  5.14705882E-02
                       5.88235294E-02  0.00000000E+00  5.88235294E-02
                       6.61764706E-02  0.00000000E+00  6.61764706E-02
                       7.35294118E-02  0.00000000E+00  7.35294118E-02
                       8.08823529E-02  0.00000000E+00  8.08823529E-02
                       8.82352941E-02  0.00000000E+00  8.82352941E-02
                       9.55882353E-02  0.00000000E+00  9.55882353E-02
                       1.02941176E-01  0.00000000E+00  1.02941176E-01
                       1.10294118E-01  0.00000000E+00  1.10294118E-01
                       1.17647059E-01  0.00000000E+00  1.17647059E-01
                       1.25000000E-01  0.00000000E+00  1.25000000E-01
                       1.32352941E-01  0.00000000E+00  1.32352941E-01
                       1.39705882E-01  0.00000000E+00  1.39705882E-01
                       1.47058824E-01  0.00000000E+00  1.47058824E-01
                       1.54411765E-01  0.00000000E+00  1.54411765E-01
                       1.61764706E-01  0.00000000E+00  1.61764706E-01
                       1.69117647E-01  0.00000000E+00  1.69117647E-01
                       1.76470588E-01  0.00000000E+00  1.76470588E-01
                       1.83823529E-01  0.00000000E+00  1.83823529E-01
                       1.91176471E-01  0.00000000E+00  1.91176471E-01
                       1.98529412E-01  0.00000000E+00  1.98529412E-01
                       2.05882353E-01  0.00000000E+00  2.05882353E-01
                       2.13235294E-01  0.00000000E+00  2.13235294E-01
                       2.20588235E-01  0.00000000E+00  2.20588235E-01
                       2.27941176E-01  0.00000000E+00  2.27941176E-01
                       2.35294118E-01  0.00000000E+00  2.35294118E-01
                       2.42647059E-01  0.00000000E+00  2.42647059E-01
                       2.50000000E-01  0.00000000E+00  2.50000000E-01
                       2.57352941E-01  0.00000000E+00  2.57352941E-01
                       2.64705882E-01  0.00000000E+00  2.64705882E-01
                       2.72058824E-01  0.00000000E+00  2.72058824E-01
                       2.79411765E-01  0.00000000E+00  2.79411765E-01
                       2.86764706E-01  0.00000000E+00  2.86764706E-01
                       2.94117647E-01  0.00000000E+00  2.94117647E-01
                       3.01470588E-01  0.00000000E+00  3.01470588E-01
                       3.08823529E-01  0.00000000E+00  3.08823529E-01
                       3.16176471E-01  0.00000000E+00  3.16176471E-01
                       3.23529412E-01  0.00000000E+00  3.23529412E-01
                       3.30882353E-01  0.00000000E+00  3.30882353E-01
                       3.38235294E-01  0.00000000E+00  3.38235294E-01
                       3.45588235E-01  0.00000000E+00  3.45588235E-01
                       3.52941176E-01  0.00000000E+00  3.52941176E-01
                       3.60294118E-01  0.00000000E+00  3.60294118E-01
              kpt3     6.75000000E-01  2.50000000E-01  6.74000000E-01
                       6.66250000E-01  2.37500000E-01  6.65300000E-01
                       6.57500000E-01  2.25000000E-01  6.56600000E-01
                       6.48750000E-01  2.12500000E-01  6.47900000E-01
                       6.40000000E-01  2.00000000E-01  6.39200000E-01
                       6.31250000E-01  1.87500000E-01  6.30500000E-01
                       6.22500000E-01  1.75000000E-01  6.21800000E-01
                       6.13750000E-01  1.62500000E-01  6.13100000E-01
                       6.05000000E-01  1.50000000E-01  6.04400000E-01
                       5.96250000E-01  1.37500000E-01  5.95700000E-01
                       5.87500000E-01  1.25000000E-01  5.87000000E-01
                       5.78750000E-01  1.12500000E-01  5.78300000E-01
                       5.70000000E-01  1.00000000E-01  5.69600000E-01
                       5.61250000E-01  8.75000000E-02  5.60900000E-01
                       5.52500000E-01  7.50000000E-02  5.52200000E-01
                       5.43750000E-01  6.25000000E-02  5.43500000E-01
                       5.35000000E-01  5.00000000E-02  5.34800000E-01
                       5.26250000E-01  3.75000000E-02  5.26100000E-01
                       5.17500000E-01  2.50000000E-02  5.17400000E-01
                       5.08750000E-01  1.25000000E-02  5.08700000E-01
                       5.00000000E-01  0.00000000E+00  5.00000000E-01
                       outvar_i_n : Printing only first  50 k-points.
           kptopt1          1
           kptopt2         -9
           kptopt3         -1
         kptrlatt        6   -6    6     -6    6    6     -6   -6    6
          kptrlen1     6.26330829E+01
          kptrlen2     3.00000000E+01
          kptrlen3     3.00000000E+01
P           mkmem1         28
P           mkmem2        401
P           mkmem3         21
            natom           1
            nband1          6
            nband2         20
            nband3         20
           nbdbuf1          0
           nbdbuf2          2
           nbdbuf3          2
           ndtset           3
            ngfft          36      36      36
             nkpt1         28
             nkpt2        401
             nkpt3         21
            nstep         200
             nsym          48
           ntypat           1
              occ      2.000000  2.000000  2.000000  2.000000  2.000000  0.000000
            rprim      0.0000000000E+00  5.0000000000E-01  5.0000000000E-01
                       5.0000000000E-01  0.0000000000E+00  5.0000000000E-01
                       5.0000000000E-01  5.0000000000E-01  0.0000000000E+00
           shiftk      5.00000000E-01  5.00000000E-01  5.00000000E-01
          spgroup         225
           strten1     4.1249786860E-07  4.1249786860E-07  4.1249786860E-07
                       0.0000000000E+00  0.0000000000E+00  0.0000000000E+00
           symrel      1  0  0   0  1  0   0  0  1      -1  0  0   0 -1  0   0  0 -1
                       0 -1  1   0 -1  0   1 -1  0       0  1 -1   0  1  0  -1  1  0
                      -1  0  0  -1  0  1  -1  1  0       1  0  0   1  0 -1   1 -1  0
                       0  1 -1   1  0 -1   0  0 -1       0 -1  1  -1  0  1   0  0  1
                      -1  0  0  -1  1  0  -1  0  1       1  0  0   1 -1  0   1  0 -1
                       0 -1  1   1 -1  0   0 -1  0       0  1 -1  -1  1  0   0  1  0
                       1  0  0   0  0  1   0  1  0      -1  0  0   0  0 -1   0 -1  0
                       0  1 -1   0  0 -1   1  0 -1       0 -1  1   0  0  1  -1  0  1
                      -1  0  1  -1  1  0  -1  0  0       1  0 -1   1 -1  0   1  0  0
                       0 -1  0   1 -1  0   0 -1  1       0  1  0  -1  1  0   0  1 -1
                       1  0 -1   0  0 -1   0  1 -1      -1  0  1   0  0  1   0 -1  1
                       0  1  0   0  0  1   1  0  0       0 -1  0   0  0 -1  -1  0  0
                       1  0 -1   0  1 -1   0  0 -1      -1  0  1   0 -1  1   0  0  1
                       0 -1  0   0 -1  1   1 -1  0       0  1  0   0  1 -1  -1  1  0
                      -1  0  1  -1  0  0  -1  1  0       1  0 -1   1  0  0   1 -1  0
                       0  1  0   1  0  0   0  0  1       0 -1  0  -1  0  0   0  0 -1
                       0  0 -1   0  1 -1   1  0 -1       0  0  1   0 -1  1  -1  0  1
                       1 -1  0   0 -1  1   0 -1  0      -1  1  0   0  1 -1   0  1  0
                       0  0  1   1  0  0   0  1  0       0  0 -1  -1  0  0   0 -1  0
                      -1  1  0  -1  0  0  -1  0  1       1 -1  0   1  0  0   1  0 -1
                       0  0  1   0  1  0   1  0  0       0  0 -1   0 -1  0  -1  0  0
                       1 -1  0   0 -1  0   0 -1  1      -1  1  0   0  1  0   0  1 -1
                       0  0 -1   1  0 -1   0  1 -1       0  0  1  -1  0  1   0 -1  1
                      -1  1  0  -1  0  1  -1  0  0       1 -1  0   1  0 -1   1  0  0
           toldfe1     1.00000000E-06 Hartree
           toldfe2     0.00000000E+00 Hartree
           toldfe3     0.00000000E+00 Hartree
           tolwfr1     0.00000000E+00
           tolwfr2     1.00000000E-10
           tolwfr3     1.00000000E-10
            typat      1
              wtk1       0.02778    0.02778    0.02778    0.05556    0.02778    0.02778
                         0.05556    0.02778    0.05556    0.05556    0.02778    0.02778
                         0.02778    0.05556    0.02778    0.05556    0.05556    0.05556
                         0.02778    0.02778    0.02778    0.02778    0.02778    0.05556
                         0.05556    0.00926    0.00926    0.00926
              wtk2       1.00000    1.00000    1.00000    1.00000    1.00000    1.00000
                         1.00000    1.00000    1.00000    1.00000    1.00000    1.00000
                         1.00000    1.00000    1.00000    1.00000    1.00000    1.00000
                         1.00000    1.00000    1.00000    1.00000    1.00000    1.00000
                         1.00000    1.00000    1.00000    1.00000    1.00000    1.00000
                         1.00000    1.00000    1.00000    1.00000    1.00000    1.00000
                         1.00000    1.00000    1.00000    1.00000    1.00000    1.00000
                         1.00000    1.00000    1.00000    1.00000    1.00000    1.00000
                         1.00000    1.00000
              wtk3       1.00000    1.00000    1.00000    1.00000    1.00000    1.00000
                         1.00000    1.00000    1.00000    1.00000    1.00000    1.00000
                         1.00000    1.00000    1.00000    1.00000    1.00000    1.00000
                         1.00000    1.00000    1.00000
                       outvars : Printing only first  50 k-points.
            znucl       20.00000

================================================================================


- Timing analysis has been suppressed with timopt=0



================================================================================

 Suggested references for the acknowledgment of ABINIT usage.

 The users of ABINIT have little formal obligations with respect to the ABINIT group
 (those specified in the GNU General Public License, http://www.gnu.org/copyleft/gpl.txt).
 However, it is common practice in the scientific literature,
 to acknowledge the efforts of people that have made the research possible.
 In this spirit, please find below suggested citations of work written by ABINIT developers,
 corresponding to implementations inside of ABINIT that you have used in the present run.
 Note also that it will be of great value to readers of publications presenting these results,
 to read papers enabling them to understand the theoretical formalism and details
 of the ABINIT implementation.
 For information on why they are suggested, see also https://docs.abinit.org/theory/acknowledgments.
-
- [1] The Abinit project: Impact, environment and recent developments.
- Computer Phys. Comm. 248, 107042 (2020).
- X.Gonze, B. Amadon, G. Antonius, F.Arnardi, L.Baguet, J.-M.Beuken,
- J.Bieder, F.Bottin, J.Bouchet, E.Bousquet, N.Brouwer, F.Bruneval,
- G.Brunin, T.Cavignac, J.-B. Charraud, Wei Chen, M.Cote, S.Cottenier,
- J.Denier, G.Geneste, Ph.Ghosez, M.Giantomassi, Y.Gillet, O.Gingras,
- D.R.Hamann, G.Hautier, Xu He, N.Helbig, N.Holzwarth, Y.Jia, F.Jollet,
- W.Lafargue-Dit-Hauret, K.Lejaeghere, M.A.L.Marques, A.Martin, C.Martins,
- H.P.C. Miranda, F.Naccarato, K. Persson, G.Petretto, V.Planes, Y.Pouillon,
- S.Prokhorenko, F.Ricci, G.-M.Rignanese, A.H.Romero, M.M.Schmitt, M.Torrent,
- M.J.van Setten, B.Van Troeye, M.J.Verstraete, G.Zerah and J.W.Zwanzig
- Comment: the fifth generic paper describing the ABINIT project.
- Note that a version of this paper, that is not formatted for Computer Phys. Comm. 
- is available at https://www.abinit.org/sites/default/files/ABINIT20.pdf .
- The licence allows the authors to put it on the Web.
- DOI and bibtex: see https://docs.abinit.org/theory/bibliography/#gonze2020
-
- [2] Ab initio pseudopotentials for electronic structure calculations of poly-atomic systems, 
- using density-functional theory.
- M. Fuchs and, M. Scheffler, Comput. Phys. Commun. 119, 67 (1999).
- Comment: Some pseudopotential generated using the FHI code were used.
- DOI and bibtex: see https://docs.abinit.org/theory/bibliography/#fuchs1999
-
- [3] ABINIT: Overview, and focus on selected capabilities
- J. Chem. Phys. 152, 124102 (2020).
- A. Romero, D.C. Allan, B. Amadon, G. Antonius, T. Applencourt, L.Baguet,
- J.Bieder, F.Bottin, J.Bouchet, E.Bousquet, F.Bruneval,
- G.Brunin, D.Caliste, M.Cote,
- J.Denier, C. Dreyer, Ph.Ghosez, M.Giantomassi, Y.Gillet, O.Gingras,
- D.R.Hamann, G.Hautier, F.Jollet, G. Jomard,
- A.Martin, 
- H.P.C. Miranda, F.Naccarato, G.Petretto, N.A. Pike, V.Planes,
- S.Prokhorenko, T. Rangel, F.Ricci, G.-M.Rignanese, M.Royo, M.Stengel, M.Torrent,
- M.J.van Setten, B.Van Troeye, M.J.Verstraete, J.Wiktor, J.W.Zwanziger, and X.Gonze.
- Comment: a global overview of ABINIT, with focus on selected capabilities .
- Note that a version of this paper, that is not formatted for J. Chem. Phys 
- is available at https://www.abinit.org/sites/default/files/ABINIT20_JPC.pdf .
- The licence allows the authors to put it on the Web.
- DOI and bibtex: see https://docs.abinit.org/theory/bibliography/#romero2020
-
- [4] Recent developments in the ABINIT software package.
- Computer Phys. Comm. 205, 106 (2016).
- X.Gonze, F.Jollet, F.Abreu Araujo, D.Adams, B.Amadon, T.Applencourt,
- C.Audouze, J.-M.Beuken, J.Bieder, A.Bokhanchuk, E.Bousquet, F.Bruneval
- D.Caliste, M.Cote, F.Dahm, F.Da Pieve, M.Delaveau, M.Di Gennaro,
- B.Dorado, C.Espejo, G.Geneste, L.Genovese, A.Gerossier, M.Giantomassi,
- Y.Gillet, D.R.Hamann, L.He, G.Jomard, J.Laflamme Janssen, S.Le Roux,
- A.Levitt, A.Lherbier, F.Liu, I.Lukacevic, A.Martin, C.Martins,
- M.J.T.Oliveira, S.Ponce, Y.Pouillon, T.Rangel, G.-M.Rignanese,
- A.H.Romero, B.Rousseau, O.Rubel, A.A.Shukri, M.Stankovski, M.Torrent,
- M.J.Van Setten, B.Van Troeye, M.J.Verstraete, D.Waroquier, J.Wiktor,
- B.Xu, A.Zhou, J.W.Zwanziger.
- Comment: the fourth generic paper describing the ABINIT project.
- Note that a version of this paper, that is not formatted for Computer Phys. Comm. 
- is available at https://www.abinit.org/sites/default/files/ABINIT16.pdf .
- The licence allows the authors to put it on the Web.
- DOI and bibtex: see https://docs.abinit.org/theory/bibliography/#gonze2016
-
- And optionally:
-
- [5] ABINIT: First-principles approach of materials and nanosystem properties.
- Computer Phys. Comm. 180, 2582-2615 (2009).
- X. Gonze, B. Amadon, P.-M. Anglade, J.-M. Beuken, F. Bottin, P. Boulanger, F. Bruneval,
- D. Caliste, R. Caracas, M. Cote, T. Deutsch, L. Genovese, Ph. Ghosez, M. Giantomassi
- S. Goedecker, D.R. Hamann, P. Hermet, F. Jollet, G. Jomard, S. Leroux, M. Mancini, S. Mazevet,
- M.J.T. Oliveira, G. Onida, Y. Pouillon, T. Rangel, G.-M. Rignanese, D. Sangalli, R. Shaltaf,
- M. Torrent, M.J. Verstraete, G. Zerah, J.W. Zwanziger
- Comment: the third generic paper describing the ABINIT project.
- Note that a version of this paper, that is not formatted for Computer Phys. Comm. 
- is available at https://www.abinit.org/sites/default/files/ABINIT_CPC_v10.pdf .
- The licence allows the authors to put it on the Web.
- DOI and bibtex: see https://docs.abinit.org/theory/bibliography/#gonze2009
-
- Proc.   0 individual time (sec): cpu=        132.9  wall=        132.6

================================================================================

 Calculation completed.
.Delivered   4 WARNINGs and   7 COMMENTs to log file.
+Overall time at end (sec) : cpu=        132.9  wall=        132.6
